ITEM: TIMESTEP
0
ITEM: NUMBER OF ATOMS
2520
ITEM: BOX BOUNDS xy xz yz pp pp pp
-2.3707500100499999e+01 1.2644000053599999e+02 -2.3707500100499999e+01
0.0000000000000000e+00 4.1062594693499996e+01 0.0000000000000000e+00
0.0000000000000000e+00 3.2295000076299999e+01 0.0000000000000000e+00
ITEM: ATOMS element xu yu zu id fx fy fz
Mo 0 1.825 3.07375 1 -4.36146e-05 -5.00709e-05 -1.35003e-13
S 1.5805 0.912502 1.56761 2 0.0046675 0.00270722 -29.3075
Mo 3.161 1.825 3.07375 3 -4.36146e-05 -5.00709e-05 -1.48881e-13
S 4.7415 0.912502 1.56761 4 0.000941343 0.00055593 -29.3001
Mo 6.322 1.825 3.07375 5 -4.36146e-05 -5.00709e-05 -1.36779e-13
S 7.9025 0.912502 1.56761 6 2.18074e-05 2.50355e-05 -29.2991
Mo 9.483 1.825 3.07375 7 -4.36146e-05 -5.00709e-05 -1.37002e-13
S 11.0635 0.912502 1.56761 8 2.18074e-05 2.50355e-05 -29.2991
Mo 12.644 1.825 3.07375 9 -4.36146e-05 -5.00709e-05 -1.33449e-13
S 14.2245 0.912502 1.56761 10 2.18074e-05 2.50355e-05 -29.2991
Mo 15.805 1.825 3.07375 11 -4.36146e-05 -5.00709e-05 -7.59393e-14
S 17.3855 0.912502 1.56761 12 2.18074e-05 2.50355e-05 -29.2991
Mo 18.966 1.825 3.07375 13 -4.36146e-05 -5.00709e-05 -1.31672e-13
S 20.5465 0.912502 1.56761 14 2.18074e-05 2.50355e-05 -29.2991
Mo 22.127 1.825 3.07375 15 -4.36146e-05 -5.00709e-05 -1.44884e-13
S 23.7075 0.912502 1.56761 16 2.18074e-05 2.50355e-05 -29.2991
Mo 25.288 1.825 3.07375 17 -4.36146e-05 -5.00709e-05 -1.32561e-13
S 26.8685 0.912502 1.56761 18 2.18074e-05 2.50355e-05 -29.2991
Mo 28.449 1.825 3.07375 19 -4.36146e-05 -5.00708e-05 -1.4988e-13
S 30.0295 0.912502 1.56761 20 2.18074e-05 2.50355e-05 -29.2991
S 0 1.825 7.71511 21 -1.39773 -0.80699 -25.2959
S 1.5805 0.912502 4.57989 22 0.0642595 0.0371117 36.2677
S 3.161 1.825 7.71511 23 0.0526819 0.0304045 -36.3416
S 4.7415 0.912502 4.57989 24 0.0076532 0.00443 36.3273
S 6.322 1.825 7.71511 25 0.00473803 0.00272409 -36.3328
S 7.9025 0.912502 4.57989 26 0.000398551 0.000241522 36.3319
S 9.483 1.825 7.71511 27 -2.00084e-05 -2.29701e-05 -36.3321
S 11.0635 0.912502 4.57989 28 2.00084e-05 2.29701e-05 36.3321
S 12.644 1.825 7.71511 29 -2.00084e-05 -2.29701e-05 -36.3321
S 14.2245 0.912502 4.57989 30 2.00084e-05 2.29701e-05 36.3321
S 15.805 1.825 7.71511 31 -2.00084e-05 -2.29701e-05 -36.3321
S 17.3855 0.912502 4.57989 32 2.00084e-05 2.29701e-05 36.3321
S 18.966 1.825 7.71511 33 -2.00084e-05 -2.29701e-05 -36.3321
S 20.5465 0.912502 4.57989 34 2.00084e-05 2.29701e-05 36.3321
S 22.127 1.825 7.71511 35 -2.00084e-05 -2.29701e-05 -36.3321
S 23.7075 0.912502 4.57989 36 2.00084e-05 2.29701e-05 36.3321
S 25.288 1.825 7.71511 37 -2.00084e-05 -2.29701e-05 -36.3321
S 26.8685 0.912502 4.57989 38 2.00084e-05 2.29701e-05 36.3321
S 28.449 1.825 7.71511 39 -2.00084e-05 -2.29701e-05 -36.3321
S 30.0295 0.912502 4.57989 40 2.00084e-05 2.29701e-05 36.3321
Mo 1.5805 0.912502 9.22125 41 6.71291 3.87573 3.7399e-07
S 0 1.825 10.7274 42 -1.39773 -0.806992 18.2629
Mo 4.7415 0.912502 9.22125 43 4.36146e-05 5.00709e-05 3.91305e-07
S 3.161 1.825 10.7274 44 0.0526801 0.0304024 29.3086
Mo 7.9025 0.912502 9.22125 45 4.36146e-05 5.00709e-05 3.91305e-07
S 6.322 1.825 10.7274 46 0.00473624 0.00272202 29.2998
Mo 11.0635 0.912502 9.22125 47 4.36146e-05 5.00709e-05 3.91305e-07
S 9.483 1.825 10.7274 48 -2.18074e-05 -2.50355e-05 29.2991
Mo 14.2245 0.912502 9.22125 49 4.36146e-05 5.00709e-05 3.91305e-07
S 12.644 1.825 10.7274 50 -2.18074e-05 -2.50355e-05 29.2991
Mo 17.3855 0.912502 9.22125 51 4.36146e-05 5.00709e-05 3.91305e-07
S 15.805 1.825 10.7274 52 -2.18074e-05 -2.50355e-05 29.2991
Mo 20.5465 0.912502 9.22125 53 4.36146e-05 5.00709e-05 3.91305e-07
S 18.966 1.825 10.7274 54 -2.18074e-05 -2.50355e-05 29.2991
Mo 23.7075 0.912502 9.22125 55 4.36146e-05 5.00709e-05 3.91305e-07
S 22.127 1.825 10.7274 56 -2.18074e-05 -2.50355e-05 29.2991
Mo 26.8685 0.912502 9.22125 57 4.36146e-05 5.00709e-05 3.91305e-07
S 25.288 1.825 10.7274 58 -2.18074e-05 -2.50355e-05 29.2991
Mo 30.0295 0.912502 9.22125 59 4.36146e-05 5.00709e-05 3.91305e-07
S 28.449 1.825 10.7274 60 -2.18074e-05 -2.50355e-05 29.2991
Mo 31.61 1.825 3.07375 61 -4.36146e-05 -5.00709e-05 -7.31637e-14
S 33.1905 0.912502 1.56761 62 2.18074e-05 2.50355e-05 -29.2991
Mo 34.771 1.825 3.07375 63 -4.36146e-05 -5.00708e-05 -7.4607e-14
S 36.3515 0.912502 1.56761 64 2.18074e-05 2.50355e-05 -29.2991
Mo 37.932 1.825 3.07375 65 -4.36146e-05 -5.00709e-05 -1.34559e-13
S 39.5125 0.912502 1.56761 66 2.18074e-05 2.50355e-05 -29.2991
Mo 41.093 1.825 3.07375 67 -4.36146e-05 -5.00708e-05 -7.41629e-14
S 42.6735 0.912502 1.56761 68 -0.000308656 -0.000165757 -29.2994
Mo 44.254 1.825 3.07375 69 -4.36146e-05 -5.00709e-05 -1.33671e-13
S 45.8345 0.912502 1.56761 70 -0.00299273 -0.00171541 -29.3036
Mo 47.415 1.825 3.07375 71 -4.36146e-05 -5.00708e-05 -1.35447e-13
S 48.9955 0.912502 1.56761 72 -0.00706684 -0.0040676 -29.3198
Mo 50.576 1.825 3.07375 73 -4.36146e-05 -5.00709e-05 -1.34559e-13
S 52.1565 0.912502 1.56761 74 -0.00462388 -0.00265715 -29.3392
Mo 53.737 1.825 3.07375 75 -4.36146e-05 -5.00708e-05 -1.33671e-13
S 55.3175 0.912502 1.56761 76 -0.000897728 -0.000505859 -29.3466
Mo 56.898 1.825 3.07375 77 -4.36146e-05 -5.00709e-05 -1.34559e-13
S 58.4785 0.912502 1.56761 78 2.18073e-05 2.50354e-05 -29.3476
Mo 60.059 1.825 3.07375 79 -4.36146e-05 -5.00708e-05 -1.34115e-13
S 61.6395 0.912502 1.56761 80 2.18073e-05 2.50354e-05 -29.3476
S 31.61 1.825 7.71511 81 -2.00084e-05 -2.29701e-05 -36.3321
S 33.1905 0.912502 4.57989 82 2.00084e-05 2.29701e-05 36.3321
S 34.771 1.825 7.71511 83 -2.00084e-05 -2.29701e-05 -36.3321
S 36.3515 0.912502 4.57989 84 2.00084e-05 2.29701e-05 36.3321
S 37.932 1.825 7.71511 85 -2.00084e-05 -2.29701e-05 -36.3321
S 39.5125 0.912502 4.57989 86 2.00084e-05 2.29701e-05 36.3321
S 41.093 1.825 7.71511 87 -0.00477805 -0.00277003 -36.3328
S 42.6735 0.912502 4.57989 88 -0.00332436 -0.0019079 36.3302
S 44.254 1.825 7.71511 89 -0.0527219 -0.0304504 -36.3416
S 45.8345 0.912502 4.57989 90 -0.0323163 -0.0186464 36.3052
S 47.415 1.825 7.71511 91 -6.28447 -3.62835 -35.1315
S 48.9955 0.912502 4.57989 92 -1.20917 -0.698103 33.9633
S 47.415 1.825 10.7274 93 -6.28447 -3.62836 28.0985
S 52.1565 0.912502 4.57989 94 -0.0642177 -0.0370637 29.4119
Mo 48.9955 0.912502 9.22125 95 8.6515 4.99497 2.43555e-07
S 55.3175 0.912502 4.57989 96 -0.00761138 -0.00438199 29.3524
S 44.254 1.825 10.7274 97 -0.0527237 -0.0304525 29.3086
S 58.4785 0.912502 4.57989 98 -0.000356735 -0.000193516 29.3478
Mo 45.8345 0.912502 9.22125 99 4.36146e-05 5.00708e-05 3.91305e-07
S 61.6395 0.912502 4.57989 100 2.18073e-05 2.50354e-05 29.3476
Mo 33.1905 0.912502 9.22125 101 4.36146e-05 5.00709e-05 3.91305e-07
S 31.61 1.825 10.7274 102 -2.18074e-05 -2.50355e-05 29.2991
Mo 36.3515 0.912502 9.22125 103 4.36146e-05 5.00709e-05 3.91305e-07
S 34.771 1.825 10.7274 104 -2.18074e-05 -2.50355e-05 29.2991
Mo 39.5125 0.912502 9.22125 105 4.36146e-05 5.00708e-05 3.91305e-07
S 37.932 1.825 10.7274 106 -2.18074e-05 -2.50355e-05 29.2991
Mo 42.6735 0.912502 9.22125 107 4.36146e-05 5.00709e-05 3.91305e-07
S 41.093 1.825 10.7274 108 -0.00477985 -0.00277209 29.2998
Mo 63.22 1.825 3.07375 109 -4.36146e-05 -5.00708e-05 -1.52545e-13
S 64.8005 0.912502 1.56761 110 2.18073e-05 2.50354e-05 -29.3476
Mo 66.381 1.825 3.07375 111 -4.36146e-05 -5.00708e-05 -1.32339e-13
S 67.9615 0.912502 1.56761 112 2.18073e-05 2.50354e-05 -29.3476
Mo 69.542 1.825 3.07375 113 -4.36146e-05 -5.00708e-05 -1.32783e-13
S 71.1225 0.912502 1.56761 114 2.18073e-05 2.50354e-05 -29.3476
Mo 72.703 1.825 3.07375 115 -4.36146e-05 -5.00709e-05 -6.75016e-14
S 74.2835 0.912502 1.56761 116 2.18073e-05 2.50354e-05 -29.3476
Mo 75.864 1.825 3.07375 117 -4.36146e-05 -5.00709e-05 -7.30527e-14
S 77.4445 0.912502 1.56761 118 2.18073e-05 2.50354e-05 -29.3476
Mo 79.025 1.825 3.07375 119 -4.36146e-05 -5.00708e-05 -1.34337e-13
S 80.6055 0.912502 1.56761 120 2.18073e-05 2.50354e-05 -29.3476
Mo 82.186 1.825 3.07375 121 -4.36146e-05 -5.00708e-05 -1.32117e-13
S 83.7665 0.912502 1.56761 122 2.18073e-05 2.50354e-05 -29.3476
Mo 85.347 1.825 3.07375 123 -4.36146e-05 -5.00709e-05 -1.51434e-13
S 86.9275 0.912502 1.56761 124 2.18073e-05 2.50354e-05 -29.3476
Mo 88.508 1.825 3.07375 125 -4.36146e-05 -5.00709e-05 -7.19425e-14
S 90.0885 0.912502 1.56761 126 2.18073e-05 2.50354e-05 -29.3476
Mo 91.669 1.825 3.07375 127 -4.36146e-05 -5.00708e-05 -1.33671e-13
S 93.2495 0.912502 1.56761 128 2.18073e-05 2.50354e-05 -29.3476
S 93.2495 0.912502 4.57989 129 2.18073e-05 2.50354e-05 29.3476
S 64.8005 0.912502 4.57989 130 2.18073e-05 2.50354e-05 29.3476
S 90.0885 0.912502 4.57989 131 2.18073e-05 2.50354e-05 29.3476
S 67.9615 0.912502 4.57989 132 2.18073e-05 2.50354e-05 29.3476
S 86.9275 0.912502 4.57989 133 2.18073e-05 2.50354e-05 29.3476
S 71.1225 0.912502 4.57989 134 2.18073e-05 2.50354e-05 29.3476
S 83.7665 0.912502 4.57989 135 2.18073e-05 2.50354e-05 29.3476
S 74.2835 0.912502 4.57989 136 2.18073e-05 2.50354e-05 29.3476
S 80.6055 0.912502 4.57989 137 2.18073e-05 2.50354e-05 29.3476
S 77.4445 0.912502 4.57989 138 2.18073e-05 2.50354e-05 29.3476
Mo 94.83 1.825 3.07375 139 -4.36146e-05 -5.00708e-05 -1.32339e-13
S 96.4105 0.912502 1.56761 140 2.18073e-05 2.50354e-05 -29.3476
Mo 97.991 1.825 3.07375 141 -4.36146e-05 -5.00709e-05 -1.55875e-13
S 99.5715 0.912502 1.56761 142 2.18073e-05 2.50354e-05 -29.3476
Mo 101.152 1.825 3.07375 143 -4.36146e-05 -5.00709e-05 -7.03881e-14
S 102.733 0.912502 1.56761 144 2.18073e-05 2.50354e-05 -29.3476
Mo 104.313 1.825 3.07375 145 -4.36146e-05 -5.00708e-05 -1.36779e-13
S 105.894 0.912502 1.56761 146 2.18073e-05 2.50354e-05 -29.3476
Mo 107.474 1.825 3.07375 147 -4.36146e-05 -5.00708e-05 -1.34115e-13
S 109.055 0.912502 1.56761 148 2.18073e-05 2.50354e-05 -29.3476
Mo 110.635 1.825 3.07375 149 -4.36146e-05 -5.00709e-05 -1.54987e-13
S 112.216 0.912502 1.56761 150 2.18073e-05 2.50354e-05 -29.3476
Mo 113.796 1.825 3.07375 151 -4.36146e-05 -5.00709e-05 -7.18314e-14
S 115.377 0.912502 1.56761 152 2.18073e-05 2.50354e-05 -29.3476
Mo 116.957 1.825 3.07375 153 -4.36146e-05 -5.00709e-05 -7.19425e-14
S 118.538 0.912502 1.56761 154 0.000352271 0.000215828 -29.3473
Mo 120.118 1.825 3.07375 155 -4.36146e-05 -5.00708e-05 -1.32117e-13
S 121.699 0.912502 1.56761 156 0.00303634 0.00176548 -29.3431
Mo 123.279 1.825 3.07375 157 -4.36146e-05 -5.00709e-05 -1.51212e-13
S 124.86 0.912502 1.56761 158 0.00711045 0.00411767 -29.3268
S 124.86 0.912502 4.57989 159 1.20921 0.698151 31.7163
S 96.4105 0.912502 4.57989 160 2.18073e-05 2.50354e-05 29.3476
S 121.699 0.912502 4.57989 161 0.0323581 0.0186944 29.3745
S 99.5715 0.912502 4.57989 162 2.18073e-05 2.50354e-05 29.3476
S 118.538 0.912502 4.57989 163 0.00336617 0.0019559 29.3494
S 102.733 0.912502 4.57989 164 2.18073e-05 2.50354e-05 29.3476
S 115.377 0.912502 4.57989 165 2.18073e-05 2.50354e-05 29.3476
S 105.894 0.912502 4.57989 166 2.18073e-05 2.50354e-05 29.3476
S 112.216 0.912502 4.57989 167 2.18073e-05 2.50354e-05 29.3476
S 109.055 0.912502 4.57989 168 2.18073e-05 2.50354e-05 29.3476
Mo -1.5805 4.56251 3.07375 169 -4.36146e-05 -5.00708e-05 -1.15463e-14
S -9.47e-08 3.65001 1.56761 170 0.0046675 0.00270722 -29.3075
Mo 1.5805 4.56251 3.07375 171 -4.36146e-05 -5.00709e-05 -1.42109e-14
S 3.161 3.65001 1.56761 172 0.000941343 0.00055593 -29.3001
Mo 4.7415 4.56251 3.07375 173 -4.36146e-05 -5.00709e-05 -1.59872e-14
S 6.322 3.65001 1.56761 174 2.18074e-05 2.50355e-05 -29.2991
Mo 7.9025 4.56251 3.07375 175 -4.36146e-05 -5.00709e-05 -1.5099e-14
S 9.483 3.65001 1.56761 176 2.18074e-05 2.50355e-05 -29.2991
Mo 11.0635 4.56251 3.07375 177 -4.36146e-05 -5.00709e-05 -8.21565e-14
S 12.644 3.65001 1.56761 178 2.18074e-05 2.50355e-05 -29.2991
Mo 14.2245 4.56251 3.07375 179 -4.36146e-05 -5.00709e-05 -7.77156e-14
S 15.805 3.65001 1.56761 180 2.18074e-05 2.50355e-05 -29.2991
Mo 17.3855 4.56251 3.07375 181 -4.36146e-05 -5.00709e-05 -1.33227e-14
S 18.966 3.65001 1.56761 182 2.18074e-05 2.50355e-05 -29.2991
Mo 20.5465 4.56251 3.07375 183 -4.36146e-05 -5.00709e-05 -1.19904e-14
S 22.127 3.65001 1.56761 184 2.18074e-05 2.50355e-05 -29.2991
Mo 23.7075 4.56251 3.07375 185 -4.36146e-05 -5.00709e-05 -1.68754e-14
S 25.288 3.65001 1.56761 186 2.18074e-05 2.50355e-05 -29.2991
Mo 26.8685 4.56251 3.07375 187 -4.36146e-05 -5.00709e-05 -1.33227e-14
S 28.449 3.65001 1.56761 188 2.18074e-05 2.50355e-05 -29.2991
S -1.5805 4.56251 7.71511 189 -1.39773 -0.80699 -25.2959
S -9.47e-08 3.65001 4.57989 190 0.0642595 0.0371117 36.2677
S 1.5805 4.56251 7.71511 191 0.0526819 0.0304045 -36.3416
S 3.161 3.65001 4.57989 192 0.0076532 0.00443 36.3273
S 4.7415 4.56251 7.71511 193 0.00473803 0.00272409 -36.3328
S 6.322 3.65001 4.57989 194 0.000398551 0.000241522 36.3319
S 7.9025 4.56251 7.71511 195 -2.00084e-05 -2.29701e-05 -36.3321
S 9.483 3.65001 4.57989 196 2.00084e-05 2.29701e-05 36.3321
S 11.0635 4.56251 7.71511 197 -2.00084e-05 -2.29701e-05 -36.3321
S 12.644 3.65001 4.57989 198 2.00084e-05 2.29701e-05 36.3321
S 14.2245 4.56251 7.71511 199 -2.00084e-05 -2.29701e-05 -36.3321
S 15.805 3.65001 4.57989 200 2.00084e-05 2.29701e-05 36.3321
S 17.3855 4.56251 7.71511 201 -2.00084e-05 -2.29701e-05 -36.3321
S 18.966 3.65001 4.57989 202 2.00084e-05 2.29701e-05 36.3321
S 20.5465 4.56251 7.71511 203 -2.00084e-05 -2.29701e-05 -36.3321
S 22.127 3.65001 4.57989 204 2.00084e-05 2.29701e-05 36.3321
S 23.7075 4.56251 7.71511 205 -2.00084e-05 -2.29701e-05 -36.3321
S 25.288 3.65001 4.57989 206 2.00084e-05 2.29701e-05 36.3321
S 26.8685 4.56251 7.71511 207 -2.00084e-05 -2.29701e-05 -36.3321
S 28.449 3.65001 4.57989 208 2.00084e-05 2.29701e-05 36.3321
Mo -9.47e-08 3.65001 9.22125 209 6.71291 3.87573 3.73991e-07
S -1.5805 4.56251 10.7274 210 -1.39773 -0.806992 18.2629
Mo 3.161 3.65001 9.22125 211 4.36146e-05 5.00709e-05 3.91305e-07
S 1.5805 4.56251 10.7274 212 0.0526801 0.0304024 29.3086
Mo 6.322 3.65001 9.22125 213 4.36146e-05 5.00709e-05 3.91305e-07
S 4.7415 4.56251 10.7274 214 0.00473624 0.00272202 29.2998
Mo 9.483 3.65001 9.22125 215 4.36146e-05 5.00709e-05 3.91305e-07
S 7.9025 4.56251 10.7274 216 -2.18074e-05 -2.50355e-05 29.2991
Mo 12.644 3.65001 9.22125 217 4.36146e-05 5.00709e-05 3.91305e-07
S 11.0635 4.56251 10.7274 218 -2.18074e-05 -2.50355e-05 29.2991
Mo 15.805 3.65001 9.22125 219 4.36146e-05 5.00709e-05 3.91305e-07
S 14.2245 4.56251 10.7274 220 -2.18074e-05 -2.50355e-05 29.2991
Mo 18.966 3.65001 9.22125 221 4.36146e-05 5.00708e-05 3.91305e-07
S 17.3855 4.56251 10.7274 222 -2.18074e-05 -2.50355e-05 29.2991
Mo 22.127 3.65001 9.22125 223 4.36146e-05 5.00709e-05 3.91305e-07
S 20.5465 4.56251 10.7274 224 -2.18074e-05 -2.50355e-05 29.2991
Mo 25.288 3.65001 9.22125 225 4.36146e-05 5.00708e-05 3.91305e-07
S 23.7075 4.56251 10.7274 226 -2.18074e-05 -2.50355e-05 29.2991
Mo 28.449 3.65001 9.22125 227 4.36146e-05 5.00709e-05 3.91305e-07
S 26.8685 4.56251 10.7274 228 -2.18074e-05 -2.50355e-05 29.2991
Mo 30.0295 4.56251 3.07375 229 -4.36146e-05 -5.00709e-05 -8.60423e-14
S 31.61 3.65001 1.56761 230 2.18074e-05 2.50355e-05 -29.2991
Mo 33.1905 4.56251 3.07375 231 -4.36146e-05 -5.00709e-05 -7.9492e-14
S 34.771 3.65001 1.56761 232 2.18074e-05 2.50355e-05 -29.2991
Mo 36.3515 4.56251 3.07375 233 -4.36146e-05 -5.00709e-05 -8.61533e-14
S 37.932 3.65001 1.56761 234 2.18074e-05 2.50355e-05 -29.2991
Mo 39.5125 4.56251 3.07375 235 -4.36146e-05 -5.00708e-05 -1.5099e-14
S 41.093 3.65001 1.56761 236 -0.000308656 -0.000165757 -29.2994
Mo 42.6735 4.56251 3.07375 237 -4.36146e-05 -5.00709e-05 -8.08242e-14
S 44.254 3.65001 1.56761 238 -0.00299273 -0.00171541 -29.3036
Mo 45.8345 4.56251 3.07375 239 -4.36146e-05 -5.00709e-05 -1.5099e-14
S 47.415 3.65001 1.56761 240 -0.00706684 -0.0040676 -29.3198
Mo 48.9955 4.56251 3.07375 241 -4.36146e-05 -5.00709e-05 -1.42553e-13
S 50.576 3.65001 1.56761 242 -0.00462388 -0.00265715 -29.3392
Mo 52.1565 4.56251 3.07375 243 -4.36146e-05 -5.00709e-05 -1.5099e-14
S 53.737 3.65001 1.56761 244 -0.000897728 -0.000505859 -29.3466
Mo 55.3175 4.56251 3.07375 245 -4.36146e-05 -5.00709e-05 -1.42997e-13
S 56.898 3.65001 1.56761 246 2.18073e-05 2.50354e-05 -29.3476
Mo 58.4785 4.56251 3.07375 247 -4.36146e-05 -5.00708e-05 -1.39888e-14
S 60.059 3.65001 1.56761 248 2.18073e-05 2.50354e-05 -29.3476
S 30.0295 4.56251 7.71511 249 -2.00084e-05 -2.29701e-05 -36.3321
S 31.61 3.65001 4.57989 250 2.00084e-05 2.29701e-05 36.3321
S 33.1905 4.56251 7.71511 251 -2.00084e-05 -2.29701e-05 -36.3321
S 34.771 3.65001 4.57989 252 2.00084e-05 2.29701e-05 36.3321
S 36.3515 4.56251 7.71511 253 -2.00084e-05 -2.29701e-05 -36.3321
S 37.932 3.65001 4.57989 254 2.00084e-05 2.29701e-05 36.3321
S 39.5125 4.56251 7.71511 255 -0.00477805 -0.00277003 -36.3328
S 41.093 3.65001 4.57989 256 -0.00332436 -0.0019079 36.3302
S 42.6735 4.56251 7.71511 257 -0.0527219 -0.0304504 -36.3416
S 44.254 3.65001 4.57989 258 -0.0323163 -0.0186464 36.3052
S 45.8345 4.56251 7.71511 259 -6.28447 -3.62835 -35.1315
S 47.415 3.65001 4.57989 260 -1.20917 -0.698103 33.9633
S 45.8345 4.56251 10.7274 261 -6.28447 -3.62836 28.0985
S 50.576 3.65001 4.57989 262 -0.0642177 -0.0370637 29.4119
Mo 47.415 3.65001 9.22125 263 8.6515 4.99497 2.43555e-07
S 53.737 3.65001 4.57989 264 -0.00761138 -0.00438199 29.3524
S 42.6735 4.56251 10.7274 265 -0.0527237 -0.0304525 29.3086
S 56.898 3.65001 4.57989 266 -0.000356735 -0.000193516 29.3478
Mo 44.254 3.65001 9.22125 267 4.36146e-05 5.00708e-05 3.91305e-07
S 60.059 3.65001 4.57989 268 2.18073e-05 2.50354e-05 29.3476
Mo 31.61 3.65001 9.22125 269 4.36146e-05 5.00708e-05 3.91305e-07
S 30.0295 4.56251 10.7274 270 -2.18074e-05 -2.50355e-05 29.2991
Mo 34.771 3.65001 9.22125 271 4.36146e-05 5.00709e-05 3.91305e-07
S 33.1905 4.56251 10.7274 272 -2.18074e-05 -2.50355e-05 29.2991
Mo 37.932 3.65001 9.22125 273 4.36146e-05 5.00708e-05 3.91305e-07
S 36.3515 4.56251 10.7274 274 -2.18074e-05 -2.50355e-05 29.2991
Mo 41.093 3.65001 9.22125 275 4.36146e-05 5.00709e-05 3.91305e-07
S 39.5125 4.56251 10.7274 276 -0.00477985 -0.00277209 29.2998
Mo 61.6395 4.56251 3.07375 277 -4.36146e-05 -5.00708e-05 -1.31006e-14
S 63.22 3.65001 1.56761 278 2.18073e-05 2.50354e-05 -29.3476
Mo 64.8005 4.56251 3.07375 279 -4.36146e-05 -5.00708e-05 -8.32667e-14
S 66.381 3.65001 1.56761 280 2.18073e-05 2.50354e-05 -29.3476
Mo 67.9615 4.56251 3.07375 281 -4.36146e-05 -5.00708e-05 -1.46549e-14
S 69.542 3.65001 1.56761 282 2.18073e-05 2.50354e-05 -29.3476
Mo 71.1225 4.56251 3.07375 283 -4.36146e-05 -5.00709e-05 -1.15463e-14
S 72.703 3.65001 1.56761 284 2.18073e-05 2.50354e-05 -29.3476
Mo 74.2835 4.56251 3.07375 285 -4.36146e-05 -5.00709e-05 -7.81597e-14
S 75.864 3.65001 1.56761 286 2.18073e-05 2.50354e-05 -29.3476
Mo 77.4445 4.56251 3.07375 287 -4.36146e-05 -5.00708e-05 -8.34888e-14
S 79.025 3.65001 1.56761 288 2.18073e-05 2.50354e-05 -29.3476
Mo 80.6055 4.56251 3.07375 289 -4.36146e-05 -5.00708e-05 -1.35447e-14
S 82.186 3.65001 1.56761 290 2.18073e-05 2.50354e-05 -29.3476
Mo 83.7665 4.56251 3.07375 291 -4.36146e-05 -5.00709e-05 -1.4877e-14
S 85.347 3.65001 1.56761 292 2.18073e-05 2.50354e-05 -29.3476
Mo 86.9275 4.56251 3.07375 293 -4.36146e-05 -5.00709e-05 -1.46549e-13
S 88.508 3.65001 1.56761 294 2.18073e-05 2.50354e-05 -29.3476
Mo 90.0885 4.56251 3.07375 295 -4.36146e-05 -5.00708e-05 -8.34888e-14
S 91.669 3.65001 1.56761 296 2.18073e-05 2.50354e-05 -29.3476
S 91.669 3.65001 4.57989 297 2.18073e-05 2.50354e-05 29.3476
S 63.22 3.65001 4.57989 298 2.18073e-05 2.50354e-05 29.3476
S 88.508 3.65001 4.57989 299 2.18073e-05 2.50354e-05 29.3476
S 66.381 3.65001 4.57989 300 2.18073e-05 2.50354e-05 29.3476
S 85.347 3.65001 4.57989 301 2.18073e-05 2.50354e-05 29.3476
S 69.542 3.65001 4.57989 302 2.18073e-05 2.50354e-05 29.3476
S 82.186 3.65001 4.57989 303 2.18073e-05 2.50354e-05 29.3476
S 72.703 3.65001 4.57989 304 2.18073e-05 2.50354e-05 29.3476
S 79.025 3.65001 4.57989 305 2.18073e-05 2.50354e-05 29.3476
S 75.864 3.65001 4.57989 306 2.18073e-05 2.50354e-05 29.3476
Mo 93.2495 4.56251 3.07375 307 -4.36146e-05 -5.00708e-05 -1.06581e-14
S 94.83 3.65001 1.56761 308 2.18073e-05 2.50354e-05 -29.3476
Mo 96.4105 4.56251 3.07375 309 -4.36146e-05 -5.00709e-05 -1.31006e-14
S 97.991 3.65001 1.56761 310 2.18073e-05 2.50354e-05 -29.3476
Mo 99.5715 4.56251 3.07375 311 -4.36146e-05 -5.00709e-05 -1.49214e-13
S 101.152 3.65001 1.56761 312 2.18073e-05 2.50354e-05 -29.3476
Mo 102.733 4.56251 3.07375 313 -4.36146e-05 -5.00708e-05 -8.43769e-14
S 104.313 3.65001 1.56761 314 2.18073e-05 2.50354e-05 -29.3476
Mo 105.894 4.56251 3.07375 315 -4.36146e-05 -5.00708e-05 -1.13243e-14
S 107.474 3.65001 1.56761 316 2.18073e-05 2.50354e-05 -29.3476
Mo 109.055 4.56251 3.07375 317 -4.36146e-05 -5.00709e-05 -1.66533e-14
S 110.635 3.65001 1.56761 318 2.18073e-05 2.50354e-05 -29.3476
Mo 112.216 4.56251 3.07375 319 -4.36146e-05 -5.00709e-05 -1.59872e-14
S 113.796 3.65001 1.56761 320 2.18073e-05 2.50354e-05 -29.3476
Mo 115.377 4.56251 3.07375 321 -4.36146e-05 -5.00709e-05 -1.46327e-13
S 116.957 3.65001 1.56761 322 0.000352271 0.000215828 -29.3473
Mo 118.538 4.56251 3.07375 323 -4.36146e-05 -5.00708e-05 -8.32667e-14
S 120.118 3.65001 1.56761 324 0.00303634 0.00176548 -29.3431
Mo 121.699 4.56251 3.07375 325 -4.36146e-05 -5.00709e-05 -1.46549e-14
S 123.279 3.65001 1.56761 326 0.00711045 0.00411767 -29.3268
S 123.279 3.65001 4.57989 327 1.20921 0.698151 31.7163
S 94.83 3.65001 4.57989 328 2.18073e-05 2.50354e-05 29.3476
S 120.118 3.65001 4.57989 329 0.0323581 0.0186944 29.3745
S 97.991 3.65001 4.57989 330 2.18073e-05 2.50354e-05 29.3476
S 116.957 3.65001 4.57989 331 0.00336617 0.0019559 29.3494
S 101.152 3.65001 4.57989 332 2.18073e-05 2.50354e-05 29.3476
S 113.796 3.65001 4.57989 333 2.18073e-05 2.50354e-05 29.3476
S 104.313 3.65001 4.57989 334 2.18073e-05 2.50354e-05 29.3476
S 110.635 3.65001 4.57989 335 2.18073e-05 2.50354e-05 29.3476
S 107.474 3.65001 4.57989 336 2.18073e-05 2.50354e-05 29.3476
Mo -3.161 7.30002 3.07375 337 -4.36146e-05 -5.00708e-05 1.20792e-13
S -1.5805 6.38751 1.56761 338 0.0046675 0.00270722 -29.3075
Mo 4.44089e-15 7.30002 3.07375 339 -4.36146e-05 -5.00708e-05 -1.37668e-14
S 1.5805 6.38751 1.56761 340 0.000941343 0.00055593 -29.3001
Mo 3.161 7.30002 3.07375 341 -4.36146e-05 -5.00708e-05 -1.48881e-13
S 4.7415 6.38751 1.56761 342 2.18074e-05 2.50355e-05 -29.2991
Mo 6.322 7.30002 3.07375 343 -4.36146e-05 -5.00708e-05 -1.39888e-14
S 7.9025 6.38751 1.56761 344 2.18074e-05 2.50355e-05 -29.2991
Mo 9.483 7.30002 3.07375 345 -4.36146e-05 -5.00708e-05 -1.44329e-14
S 11.0635 6.38751 1.56761 346 2.18074e-05 2.50355e-05 -29.2991
Mo 12.644 7.30002 3.07375 347 -4.36146e-05 -5.00708e-05 -1.73195e-14
S 14.2245 6.38751 1.56761 348 2.18074e-05 2.50355e-05 -29.2991
Mo 15.805 7.30002 3.07375 349 -4.36146e-05 -5.00708e-05 -1.4988e-14
S 17.3855 6.38751 1.56761 350 2.18074e-05 2.50355e-05 -29.2991
Mo 18.966 7.30002 3.07375 351 -4.36146e-05 -5.00708e-05 -9.34808e-14
S 20.5465 6.38751 1.56761 352 2.18074e-05 2.50355e-05 -29.2991
Mo 22.127 7.30002 3.07375 353 -4.36146e-05 -5.00708e-05 -1.5099e-14
S 23.7075 6.38751 1.56761 354 2.18074e-05 2.50355e-05 -29.2991
Mo 25.288 7.30002 3.07375 355 -4.36146e-05 -5.00708e-05 -9.28146e-14
S 26.8685 6.38751 1.56761 356 2.18074e-05 2.50355e-05 -29.2991
S -3.161 7.30002 7.71511 357 -1.39773 -0.80699 -25.2959
S -1.5805 6.38751 4.57989 358 0.0642595 0.0371117 36.2677
S 4.44089e-15 7.30002 7.71511 359 0.0526819 0.0304045 -36.3416
S 1.5805 6.38751 4.57989 360 0.0076532 0.00443 36.3273
S 3.161 7.30002 7.71511 361 0.00473803 0.00272409 -36.3328
S 4.7415 6.38751 4.57989 362 0.000398551 0.000241522 36.3319
S 6.322 7.30002 7.71511 363 -2.00084e-05 -2.29701e-05 -36.3321
S 7.9025 6.38751 4.57989 364 2.00084e-05 2.29701e-05 36.3321
S 9.483 7.30002 7.71511 365 -2.00084e-05 -2.29701e-05 -36.3321
S 11.0635 6.38751 4.57989 366 2.00084e-05 2.29701e-05 36.3321
S 12.644 7.30002 7.71511 367 -2.00084e-05 -2.29701e-05 -36.3321
S 14.2245 6.38751 4.57989 368 2.00084e-05 2.29701e-05 36.3321
S 15.805 7.30002 7.71511 369 -2.00084e-05 -2.29701e-05 -36.3321
S 17.3855 6.38751 4.57989 370 2.00084e-05 2.29701e-05 36.3321
S 18.966 7.30002 7.71511 371 -2.00084e-05 -2.29701e-05 -36.3321
S 20.5465 6.38751 4.57989 372 2.00084e-05 2.29701e-05 36.3321
S 22.127 7.30002 7.71511 373 -2.00084e-05 -2.29701e-05 -36.3321
S 23.7075 6.38751 4.57989 374 2.00084e-05 2.29701e-05 36.3321
S 25.288 7.30002 7.71511 375 -2.00084e-05 -2.29701e-05 -36.3321
S 26.8685 6.38751 4.57989 376 2.00084e-05 2.29701e-05 36.3321
Mo -1.5805 6.38751 9.22125 377 6.71291 3.87573 3.7399e-07
S -3.161 7.30002 10.7274 378 -1.39773 -0.806992 18.2629
Mo 1.5805 6.38751 9.22125 379 4.36146e-05 5.00709e-05 3.91305e-07
S 4.44089e-15 7.30002 10.7274 380 0.0526801 0.0304024 29.3086
Mo 4.7415 6.38751 9.22125 381 4.36146e-05 5.00709e-05 3.91305e-07
S 3.161 7.30002 10.7274 382 0.00473624 0.00272202 29.2998
Mo 7.9025 6.38751 9.22125 383 4.36146e-05 5.00709e-05 3.91305e-07
S 6.322 7.30002 10.7274 384 -2.18074e-05 -2.50355e-05 29.2991
Mo 11.0635 6.38751 9.22125 385 4.36146e-05 5.00709e-05 3.91305e-07
S 9.483 7.30002 10.7274 386 -2.18074e-05 -2.50355e-05 29.2991
Mo 14.2245 6.38751 9.22125 387 4.36146e-05 5.00709e-05 3.91305e-07
S 12.644 7.30002 10.7274 388 -2.18074e-05 -2.50355e-05 29.2991
Mo 17.3855 6.38751 9.22125 389 4.36146e-05 5.00709e-05 3.91305e-07
S 15.805 7.30002 10.7274 390 -2.18074e-05 -2.50355e-05 29.2991
Mo 20.5465 6.38751 9.22125 391 4.36146e-05 5.00709e-05 3.91305e-07
S 18.966 7.30002 10.7274 392 -2.18074e-05 -2.50355e-05 29.2991
Mo 23.7075 6.38751 9.22125 393 4.36146e-05 5.00709e-05 3.91305e-07
S 22.127 7.30002 10.7274 394 -2.18074e-05 -2.50355e-05 29.2991
Mo 26.8685 6.38751 9.22125 395 4.36146e-05 5.00709e-05 3.91305e-07
S 25.288 7.30002 10.7274 396 -2.18074e-05 -2.50355e-05 29.2991
Mo 28.449 7.30002 3.07375 397 -4.36146e-05 -5.00709e-05 -1.15463e-14
S 30.0295 6.38751 1.56761 398 2.18074e-05 2.50355e-05 -29.2991
Mo 31.61 7.30002 3.07375 399 -4.36146e-05 -5.00708e-05 -1.33227e-14
S 33.1905 6.38751 1.56761 400 2.18074e-05 2.50355e-05 -29.2991
Mo 34.771 7.30002 3.07375 401 -4.36146e-05 -5.00709e-05 -1.37668e-14
S 36.3515 6.38751 1.56761 402 2.18074e-05 2.50355e-05 -29.2991
Mo 37.932 7.30002 3.07375 403 -4.36146e-05 -5.00708e-05 -7.41629e-14
S 39.5125 6.38751 1.56761 404 -0.000308656 -0.000165757 -29.2994
Mo 41.093 7.30002 3.07375 405 -4.36146e-05 -5.00709e-05 -1.4877e-14
S 42.6735 6.38751 1.56761 406 -0.00299273 -0.00171541 -29.3036
Mo 44.254 7.30002 3.07375 407 -4.36146e-05 -5.00708e-05 -7.41629e-14
S 45.8345 6.38751 1.56761 408 -0.00706684 -0.0040676 -29.3198
Mo 47.415 7.30002 3.07375 409 -4.36146e-05 -5.00709e-05 -8.68194e-14
S 48.9955 6.38751 1.56761 410 -0.00462388 -0.00265715 -29.3392
Mo 50.576 7.30002 3.07375 411 -4.36146e-05 -5.00708e-05 -1.22125e-14
S 52.1565 6.38751 1.56761 412 -0.000897728 -0.000505859 -29.3466
Mo 53.737 7.30002 3.07375 413 -4.36146e-05 -5.00709e-05 -1.31006e-14
S 55.3175 6.38751 1.56761 414 2.18073e-05 2.50354e-05 -29.3476
Mo 56.898 7.30002 3.07375 415 -4.36146e-05 -5.00708e-05 -7.4829e-14
S 58.4785 6.38751 1.56761 416 2.18073e-05 2.50354e-05 -29.3476
S 28.449 7.30002 7.71511 417 -2.00084e-05 -2.29701e-05 -36.3321
S 30.0295 6.38751 4.57989 418 2.00084e-05 2.29701e-05 36.3321
S 31.61 7.30002 7.71511 419 -2.00084e-05 -2.29701e-05 -36.3321
S 33.1905 6.38751 4.57989 420 2.00084e-05 2.29701e-05 36.3321
S 34.771 7.30002 7.71511 421 -2.00084e-05 -2.29701e-05 -36.3321
S 36.3515 6.38751 4.57989 422 2.00084e-05 2.29701e-05 36.3321
S 37.932 7.30002 7.71511 423 -0.00477805 -0.00277003 -36.3328
S 39.5125 6.38751 4.57989 424 -0.00332436 -0.0019079 36.3302
S 41.093 7.30002 7.71511 425 -0.0527219 -0.0304504 -36.3416
S 42.6735 6.38751 4.57989 426 -0.0323163 -0.0186464 36.3052
S 44.254 7.30002 7.71511 427 -6.28447 -3.62835 -35.1315
S 45.8345 6.38751 4.57989 428 -1.20917 -0.698103 33.9633
S 44.254 7.30002 10.7274 429 -6.28447 -3.62836 28.0985
S 48.9955 6.38751 4.57989 430 -0.0642177 -0.0370637 29.4119
Mo 45.8345 6.38751 9.22125 431 8.6515 4.99497 2.43556e-07
S 52.1565 6.38751 4.57989 432 -0.00761138 -0.00438199 29.3524
S 41.093 7.30002 10.7274 433 -0.0527237 -0.0304525 29.3086
S 55.3175 6.38751 4.57989 434 -0.000356735 -0.000193516 29.3478
Mo 42.6735 6.38751 9.22125 435 4.36146e-05 5.00708e-05 3.91305e-07
S 58.4785 6.38751 4.57989 436 2.18073e-05 2.50354e-05 29.3476
Mo 30.0295 6.38751 9.22125 437 4.36146e-05 5.00708e-05 3.91305e-07
S 28.449 7.30002 10.7274 438 -2.18074e-05 -2.50355e-05 29.2991
Mo 33.1905 6.38751 9.22125 439 4.36146e-05 5.00709e-05 3.91305e-07
S 31.61 7.30002 10.7274 440 -2.18074e-05 -2.50355e-05 29.2991
Mo 36.3515 6.38751 9.22125 441 4.36146e-05 5.00708e-05 3.91305e-07
S 34.771 7.30002 10.7274 442 -2.18074e-05 -2.50355e-05 29.2991
Mo 39.5125 6.38751 9.22125 443 4.36146e-05 5.00709e-05 3.91305e-07
S 37.932 7.30002 10.7274 444 -0.00477985 -0.00277209 29.2998
Mo 60.059 7.30002 3.07375 445 -4.36146e-05 -5.00709e-05 -1.32117e-14
S 61.6395 6.38751 1.56761 446 2.18073e-05 2.50354e-05 -29.3476
Mo 63.22 7.30002 3.07375 447 -4.36146e-05 -5.00708e-05 -7.54952e-14
S 64.8005 6.38751 1.56761 448 2.18073e-05 2.50354e-05 -29.3476
Mo 66.381 7.30002 3.07375 449 -4.36146e-05 -5.00708e-05 -1.42109e-14
S 67.9615 6.38751 1.56761 450 2.18073e-05 2.50354e-05 -29.3476
Mo 69.542 7.30002 3.07375 451 -4.36146e-05 -5.00709e-05 -7.03881e-14
S 71.1225 6.38751 1.56761 452 2.18073e-05 2.50354e-05 -29.3476
Mo 72.703 7.30002 3.07375 453 -4.36146e-05 -5.00709e-05 -1.46549e-14
S 74.2835 6.38751 1.56761 454 2.18073e-05 2.50354e-05 -29.3476
Mo 75.864 7.30002 3.07375 455 -4.36146e-05 -5.00708e-05 -7.32747e-14
S 77.4445 6.38751 1.56761 456 2.18073e-05 2.50354e-05 -29.3476
Mo 79.025 7.30002 3.07375 457 -4.36146e-05 -5.00708e-05 -1.24345e-14
S 80.6055 6.38751 1.56761 458 2.18073e-05 2.50354e-05 -29.3476
Mo 82.186 7.30002 3.07375 459 -4.36146e-05 -5.00709e-05 -1.4877e-14
S 83.7665 6.38751 1.56761 460 2.18073e-05 2.50354e-05 -29.3476
Mo 85.347 7.30002 3.07375 461 -4.36146e-05 -5.00708e-05 -7.59393e-14
S 86.9275 6.38751 1.56761 462 2.18073e-05 2.50354e-05 -29.3476
Mo 88.508 7.30002 3.07375 463 -4.36146e-05 -5.00708e-05 -7.23865e-14
S 90.0885 6.38751 1.56761 464 2.18073e-05 2.50354e-05 -29.3476
S 90.0885 6.38751 4.57989 465 2.18073e-05 2.50354e-05 29.3476
S 61.6395 6.38751 4.57989 466 2.18073e-05 2.50354e-05 29.3476
S 86.9275 6.38751 4.57989 467 2.18073e-05 2.50354e-05 29.3476