LAMMPS data file via write_data, version 23 Jun 2022, timestep = 0

2520 atoms
2 atom types

0 126.44000053599999 xlo xhi
0 41.062594693499996 ylo yhi
0 32.2950000763 zlo zhi
-23.7075001005 0 0 xy xz yz

Masses

1 95.95999999999999
2 32.065

Atoms # atomic

1 1 0 1.825004263 3.073750019 0 0 0
2 2 1.5804999120000005 0.91250205 1.56761248 0 0 0
3 1 3.161000013400001 1.825004263 3.073750019 0 0 0
4 2 4.741499925400002 0.91250205 1.56761248 0 0 0
5 1 6.3220000268 1.825004263 3.073750019 0 0 0
6 2 7.9024999388 0.91250205 1.56761248 0 0 0
7 1 9.4830000402 1.825004263 3.073750019 0 0 0
8 2 11.0634999522 0.91250205 1.56761248 0 0 0
9 1 12.6440000536 1.825004263 3.073750019 0 0 0
10 2 14.2244999656 0.91250205 1.56761248 0 0 0
11 1 15.805000067 1.825004263 3.073750019 0 0 0
12 2 17.385499979000002 0.91250205 1.56761248 0 0 0
13 1 18.9660000804 1.825004263 3.073750019 0 0 0
14 2 20.5464999924 0.91250205 1.56761248 0 0 0
15 1 22.127000093799996 1.825004263 3.073750019 0 0 0
16 2 23.7075000058 0.91250205 1.56761248 0 0 0
17 1 25.2880001072 1.825004263 3.073750019 0 0 0
18 2 26.8685000192 0.91250205 1.56761248 0 0 0
19 1 28.449000120599994 1.825004263 3.073750019 0 0 0
20 2 30.029500032599998 0.91250205 1.56761248 0 0 0
21 2 0 1.825004263 7.715112519000003 0 0 0
22 2 1.5804999120000005 0.91250205 4.579887558 0 0 0
23 2 3.161000013400001 1.825004263 7.715112519000003 0 0 0
24 2 4.741499925400002 0.91250205 4.579887558 0 0 0
25 2 6.3220000268 1.825004263 7.715112519000003 0 0 0
26 2 7.9024999388 0.91250205 4.579887558 0 0 0
27 2 9.4830000402 1.825004263 7.715112519000003 0 0 0
28 2 11.0634999522 0.91250205 4.579887558 0 0 0
29 2 12.6440000536 1.825004263 7.715112519000003 0 0 0
30 2 14.2244999656 0.91250205 4.579887558 0 0 0
31 2 15.805000067 1.825004263 7.715112519000003 0 0 0
32 2 17.385499979000002 0.91250205 4.579887558 0 0 0
33 2 18.9660000804 1.825004263 7.715112519000003 0 0 0
34 2 20.5464999924 0.91250205 4.579887558 0 0 0
35 2 22.127000093799996 1.825004263 7.715112519000003 0 0 0
36 2 23.7075000058 0.91250205 4.579887558 0 0 0
37 2 25.2880001072 1.825004263 7.715112519000003 0 0 0
38 2 26.8685000192 0.91250205 4.579887558 0 0 0
39 2 28.449000120599994 1.825004263 7.715112519000003 0 0 0
40 2 30.029500032599998 0.91250205 4.579887558 0 0 0
41 1 1.5804999120000005 0.91250205 9.221250057 0 0 0
42 2 0 1.825004263 10.727387596 0 0 0
43 1 4.741499925400002 0.91250205 9.221250057 0 0 0
44 2 3.161000013400001 1.825004263 10.727387596 0 0 0
45 1 7.9024999388 0.91250205 9.221250057 0 0 0
46 2 6.3220000268 1.825004263 10.727387596 0 0 0
47 1 11.0634999522 0.91250205 9.221250057 0 0 0
48 2 9.4830000402 1.825004263 10.727387596 0 0 0
49 1 14.2244999656 0.91250205 9.221250057 0 0 0
50 2 12.6440000536 1.825004263 10.727387596 0 0 0
51 1 17.385499979000002 0.91250205 9.221250057 0 0 0
52 2 15.805000067 1.825004263 10.727387596 0 0 0
53 1 20.5464999924 0.91250205 9.221250057 0 0 0
54 2 18.9660000804 1.825004263 10.727387596 0 0 0
55 1 23.7075000058 0.91250205 9.221250057 0 0 0
56 2 22.127000093799996 1.825004263 10.727387596 0 0 0
57 1 26.8685000192 0.91250205 9.221250057 0 0 0
58 2 25.2880001072 1.825004263 10.727387596 0 0 0
59 1 30.029500032599998 0.91250205 9.221250057 0 0 0
60 2 28.449000120599994 1.825004263 10.727387596 0 0 0
169 1 -1.5805000067 4.5625105759 3.073750019 0 0 0
170 2 -9.469999850963973e-08 3.6500083629 1.56761248 0 0 0
171 1 1.5805000067000008 4.5625105759 3.073750019 0 0 0
172 2 3.1609999187000013 3.6500083629 1.56761248 0 0 0
173 1 4.7415000201 4.5625105759 3.073750019 0 0 0
174 2 6.321999932100004 3.6500083629 1.56761248 0 0 0
175 1 7.902500033500001 4.5625105759 3.073750019 0 0 0
176 2 9.482999945500005 3.6500083629 1.56761248 0 0 0
177 1 11.0635000469 4.5625105759 3.073750019 0 0 0
178 2 12.643999958900004 3.6500083629 1.56761248 0 0 0
179 1 14.224500060299999 4.5625105759 3.073750019 0 0 0
180 2 15.804999972300001 3.6500083629 1.56761248 0 0 0
181 1 17.3855000737 4.5625105759 3.073750019 0 0 0
182 2 18.965999985699998 3.6500083629 1.56761248 0 0 0
183 1 20.546500087099997 4.5625105759 3.073750019 0 0 0
184 2 22.126999999099997 3.6500083629 1.56761248 0 0 0
185 1 23.7075001005 4.5625105759 3.073750019 0 0 0
186 2 25.288000012499996 3.6500083629 1.56761248 0 0 0
187 1 26.868500113899994 4.5625105759 3.073750019 0 0 0
188 2 28.449000025899995 3.6500083629 1.56761248 0 0 0
189 2 -1.5805000067 4.5625105759 7.715112519000003 0 0 0
190 2 -9.469999850963973e-08 3.6500083629 4.579887558 0 0 0
191 2 1.5805000067000008 4.5625105759 7.715112519000003 0 0 0
192 2 3.1609999187000013 3.6500083629 4.579887558 0 0 0
193 2 4.7415000201 4.5625105759 7.715112519000003 0 0 0
194 2 6.321999932100004 3.6500083629 4.579887558 0 0 0
195 2 7.902500033500001 4.5625105759 7.715112519000003 0 0 0
196 2 9.482999945500005 3.6500083629 4.579887558 0 0 0
197 2 11.0635000469 4.5625105759 7.715112519000003 0 0 0
198 2 12.643999958900004 3.6500083629 4.579887558 0 0 0
199 2 14.224500060299999 4.5625105759 7.715112519000003 0 0 0
200 2 15.804999972300001 3.6500083629 4.579887558 0 0 0
201 2 17.3855000737 4.5625105759 7.715112519000003 0 0 0
202 2 18.965999985699998 3.6500083629 4.579887558 0 0 0
203 2 20.546500087099997 4.5625105759 7.715112519000003 0 0 0
204 2 22.126999999099997 3.6500083629 4.579887558 0 0 0
205 2 23.7075001005 4.5625105759 7.715112519000003 0 0 0
206 2 25.288000012499996 3.6500083629 4.579887558 0 0 0
207 2 26.868500113899994 4.5625105759 7.715112519000003 0 0 0
208 2 28.449000025899995 3.6500083629 4.579887558 0 0 0
209 1 -9.469999850963973e-08 3.6500083629 9.221250057 0 0 0
210 2 -1.5805000067 4.5625105759 10.727387596 0 0 0
211 1 3.1609999187000013 3.6500083629 9.221250057 0 0 0
212 2 1.5805000067000008 4.5625105759 10.727387596 0 0 0
213 1 6.321999932100004 3.6500083629 9.221250057 0 0 0
214 2 4.7415000201 4.5625105759 10.727387596 0 0 0
215 1 9.482999945500005 3.6500083629 9.221250057 0 0 0
216 2 7.902500033500001 4.5625105759 10.727387596 0 0 0
217 1 12.643999958900004 3.6500083629 9.221250057 0 0 0
218 2 11.0635000469 4.5625105759 10.727387596 0 0 0
219 1 15.804999972300001 3.6500083629 9.221250057 0 0 0
220 2 14.224500060299999 4.5625105759 10.727387596 0 0 0
221 1 18.965999985699998 3.6500083629 9.221250057 0 0 0
222 2 17.3855000737 4.5625105759 10.727387596 0 0 0
223 1 22.126999999099997 3.6500083629 9.221250057 0 0 0
224 2 20.546500087099997 4.5625105759 10.727387596 0 0 0
225 1 25.288000012499996 3.6500083629 9.221250057 0 0 0
226 2 23.7075001005 4.5625105759 10.727387596 0 0 0
227 1 28.449000025899995 3.6500083629 9.221250057 0 0 0
228 2 26.868500113899994 4.5625105759 10.727387596 0 0 0
337 1 -3.161000013399998 7.300016888799999 3.073750019 0 0 0
338 2 -1.5805001013999993 6.387514675799999 1.56761248 0 0 0
339 1 3.552713678800501e-15 7.300016888799999 3.073750019 0 0 0
340 2 1.5804999120000014 6.387514675799999 1.56761248 0 0 0
341 1 3.1610000134000025 7.300016888799999 3.073750019 0 0 0
342 2 4.741499925400002 6.387514675799999 1.56761248 0 0 0
343 1 6.322000026800002 7.300016888799999 3.073750019 0 0 0
344 2 7.902499938800001 6.387514675799999 1.56761248 0 0 0
345 1 9.4830000402 7.300016888799999 3.073750019 0 0 0
346 2 11.0634999522 6.387514675799999 1.56761248 0 0 0
347 1 12.6440000536 7.300016888799999 3.073750019 0 0 0
348 2 14.2244999656 6.387514675799999 1.56761248 0 0 0
349 1 15.805000067000002 7.300016888799999 3.073750019 0 0 0
350 2 17.385499979000002 6.387514675799999 1.56761248 0 0 0
351 1 18.966000080399997 7.300016888799999 3.073750019 0 0 0
352 2 20.5464999924 6.387514675799999 1.56761248 0 0 0
353 1 22.1270000938 7.300016888799999 3.073750019 0 0 0
354 2 23.7075000058 6.387514675799999 1.56761248 0 0 0
355 1 25.288000107199995 7.300016888799999 3.073750019 0 0 0
356 2 26.8685000192 6.387514675799999 1.56761248 0 0 0
357 2 -3.161000013399998 7.300016888799999 7.715112519000003 0 0 0
358 2 -1.5805001013999993 6.387514675799999 4.579887558 0 0 0
359 2 3.552713678800501e-15 7.300016888799999 7.715112519000003 0 0 0
360 2 1.5804999120000014 6.387514675799999 4.579887558 0 0 0
361 2 3.1610000134000025 7.300016888799999 7.715112519000003 0 0 0
362 2 4.741499925400002 6.387514675799999 4.579887558 0 0 0
363 2 6.322000026800002 7.300016888799999 7.715112519000003 0 0 0
364 2 7.902499938800001 6.387514675799999 4.579887558 0 0 0
365 2 9.4830000402 7.300016888799999 7.715112519000003 0 0 0
366 2 11.0634999522 6.387514675799999 4.579887558 0 0 0
367 2 12.6440000536 7.300016888799999 7.715112519000003 0 0 0
368 2 14.2244999656 6.387514675799999 4.579887558 0 0 0
369 2 15.805000067000002 7.300016888799999 7.715112519000003 0 0 0
370 2 17.385499979000002 6.387514675799999 4.579887558 0 0 0
371 2 18.966000080399997 7.300016888799999 7.715112519000003 0 0 0
372 2 20.5464999924 6.387514675799999 4.579887558 0 0 0
373 2 22.1270000938 7.300016888799999 7.715112519000003 0 0 0
374 2 23.7075000058 6.387514675799999 4.579887558 0 0 0
375 2 25.288000107199995 7.300016888799999 7.715112519000003 0 0 0
376 2 26.8685000192 6.387514675799999 4.579887558 0 0 0
377 1 -1.5805001013999993 6.387514675799999 9.221250057 0 0 0
378 2 -3.161000013399998 7.300016888799999 10.727387596 0 0 0
379 1 1.5804999120000014 6.387514675799999 9.221250057 0 0 0
380 2 3.552713678800501e-15 7.300016888799999 10.727387596 0 0 0
381 1 4.741499925400002 6.387514675799999 9.221250057 0 0 0
382 2 3.1610000134000025 7.300016888799999 10.727387596 0 0 0
383 1 7.902499938800001 6.387514675799999 9.221250057 0 0 0
384 2 6.322000026800002 7.300016888799999 10.727387596 0 0 0
385 1 11.0634999522 6.387514675799999 9.221250057 0 0 0
386 2 9.4830000402 7.300016888799999 10.727387596 0 0 0
387 1 14.2244999656 6.387514675799999 9.221250057 0 0 0
388 2 12.6440000536 7.300016888799999 10.727387596 0 0 0
389 1 17.385499979000002 6.387514675799999 9.221250057 0 0 0
390 2 15.805000067000002 7.300016888799999 10.727387596 0 0 0
391 1 20.5464999924 6.387514675799999 9.221250057 0 0 0
392 2 18.966000080399997 7.300016888799999 10.727387596 0 0 0
393 1 23.7075000058 6.387514675799999 9.221250057 0 0 0
394 2 22.1270000938 7.300016888799999 10.727387596 0 0 0
395 1 26.8685000192 6.387514675799999 9.221250057 0 0 0
396 2 25.288000107199995 7.300016888799999 10.727387596 0 0 0
505 1 -4.7415000201 10.037523201700001 3.073750019 0 0 0
506 2 -3.1610001080999997 9.125020988700001 1.56761248 0 0 0
507 1 -1.5805000066999986 10.037523201700001 3.073750019 0 0 0
508 2 -9.469999984190736e-08 9.125020988700001 1.56761248 0 0 0
509 1 1.5805000067000012 10.037523201700001 3.073750019 0 0 0
510 2 3.160999918700001 9.125020988700001 1.56761248 0 0 0
511 1 4.741500020100001 10.037523201700001 3.073750019 0 0 0
512 2 6.321999932100003 9.125020988700001 1.56761248 0 0 0
513 1 7.9025000335 10.037523201700001 3.073750019 0 0 0
514 2 9.482999945500001 9.125020988700001 1.56761248 0 0 0
515 1 11.0635000469 10.037523201700001 3.073750019 0 0 0
516 2 12.6439999589 9.125020988700001 1.56761248 0 0 0
517 1 14.224500060300002 10.037523201700001 3.073750019 0 0 0
518 2 15.804999972300003 9.125020988700001 1.56761248 0 0 0
519 1 17.3855000737 10.037523201700001 3.073750019 0 0 0
520 2 18.9659999857 9.125020988700001 1.56761248 0 0 0
521 1 20.546500087100007 10.037523201700001 3.073750019 0 0 0
522 2 22.1269999991 9.125020988700001 1.56761248 0 0 0
523 1 23.7075001005 10.037523201700001 3.073750019 0 0 0
524 2 25.2880000125 9.125020988700001 1.56761248 0 0 0
525 2 -4.7415000201 10.037523201700001 7.715112519000003 0 0 0
526 2 -3.1610001080999997 9.125020988700001 4.579887558 0 0 0
527 2 -1.5805000066999986 10.037523201700001 7.715112519000003 0 0 0
528 2 -9.469999984190736e-08 9.125020988700001 4.579887558 0 0 0
529 2 1.5805000067000012 10.037523201700001 7.715112519000003 0 0 0
530 2 3.160999918700001 9.125020988700001 4.579887558 0 0 0
531 2 4.741500020100001 10.037523201700001 7.715112519000003 0 0 0
532 2 6.321999932100003 9.125020988700001 4.579887558 0 0 0
533 2 7.9025000335 10.037523201700001 7.715112519000003 0 0 0
534 2 9.482999945500001 9.125020988700001 4.579887558 0 0 0
535 2 11.0635000469 10.037523201700001 7.715112519000003 0 0 0
536 2 12.6439999589 9.125020988700001 4.579887558 0 0 0
537 2 14.224500060300002 10.037523201700001 7.715112519000003 0 0 0
538 2 15.804999972300003 9.125020988700001 4.579887558 0 0 0
539 2 17.3855000737 10.037523201700001 7.715112519000003 0 0 0
540 2 18.9659999857 9.125020988700001 4.579887558 0 0 0
541 2 20.546500087100007 10.037523201700001 7.715112519000003 0 0 0
542 2 22.1269999991 9.125020988700001 4.579887558 0 0 0
543 2 23.7075001005 10.037523201700001 7.715112519000003 0 0 0
544 2 25.2880000125 9.125020988700001 4.579887558 0 0 0
545 1 -3.1610001080999997 9.125020988700001 9.221250057 0 0 0
546 2 -4.7415000201 10.037523201700001 10.727387596 0 0 0
547 1 -9.469999984190736e-08 9.125020988700001 9.221250057 0 0 0
548 2 -1.5805000066999986 10.037523201700001 10.727387596 0 0 0
549 1 3.160999918700001 9.125020988700001 9.221250057 0 0 0
550 2 1.5805000067000012 10.037523201700001 10.727387596 0 0 0
551 1 6.321999932100003 9.125020988700001 9.221250057 0 0 0
552 2 4.741500020100001 10.037523201700001 10.727387596 0 0 0
553 1 9.482999945500001 9.125020988700001 9.221250057 0 0 0
554 2 7.9025000335 10.037523201700001 10.727387596 0 0 0
555 1 12.6439999589 9.125020988700001 9.221250057 0 0 0
556 2 11.0635000469 10.037523201700001 10.727387596 0 0 0
557 1 15.804999972300003 9.125020988700001 9.221250057 0 0 0
558 2 14.224500060300002 10.037523201700001 10.727387596 0 0 0
559 1 18.9659999857 9.125020988700001 9.221250057 0 0 0
560 2 17.3855000737 10.037523201700001 10.727387596 0 0 0
561 1 22.1269999991 9.125020988700001 9.221250057 0 0 0
562 2 20.546500087100007 10.037523201700001 10.727387596 0 0 0
563 1 25.2880000125 9.125020988700001 9.221250057 0 0 0
564 2 23.7075001005 10.037523201700001 10.727387596 0 0 0
673 1 -6.3220000268 12.7750295146 3.073750019 0 0 0
674 2 -4.741500114799999 11.8625273016 1.56761248 0 0 0
675 1 -3.161000013399998 12.7750295146 3.073750019 0 0 0
676 2 -1.5805001013999993 11.8625273016 1.56761248 0 0 0
677 1 1.7763568394002505e-15 12.7750295146 3.073750019 0 0 0
678 2 1.5804999120000014 11.8625273016 1.56761248 0 0 0
679 1 3.1610000134000016 12.7750295146 3.073750019 0 0 0
680 2 4.741499925400004 11.8625273016 1.56761248 0 0 0
681 1 6.3220000268000005 12.7750295146 3.073750019 0 0 0
682 2 7.902499938800003 11.8625273016 1.56761248 0 0 0
683 1 9.4830000402 12.7750295146 3.073750019 0 0 0
684 2 11.0634999522 11.8625273016 1.56761248 0 0 0
685 1 12.644000053600003 12.7750295146 3.073750019 0 0 0
686 2 14.224499965600003 11.8625273016 1.56761248 0 0 0
687 1 15.805000066999998 12.7750295146 3.073750019 0 0 0
688 2 17.385499979000006 11.8625273016 1.56761248 0 0 0
689 1 18.9660000804 12.7750295146 3.073750019 0 0 0
690 2 20.5464999924 11.8625273016 1.56761248 0 0 0
691 1 22.127000093799992 12.7750295146 3.073750019 0 0 0
692 2 23.707500005800004 11.8625273016 1.56761248 0 0 0
693 2 -6.3220000268 12.7750295146 7.715112519000003 0 0 0
694 2 -4.741500114799999 11.8625273016 4.579887558 0 0 0
695 2 -3.161000013399998 12.7750295146 7.715112519000003 0 0 0
696 2 -1.5805001013999993 11.8625273016 4.579887558 0 0 0
697 2 1.7763568394002505e-15 12.7750295146 7.715112519000003 0 0 0
698 2 1.5804999120000014 11.8625273016 4.579887558 0 0 0
699 2 3.1610000134000016 12.7750295146 7.715112519000003 0 0 0
700 2 4.741499925400004 11.8625273016 4.579887558 0 0 0
701 2 6.3220000268000005 12.7750295146 7.715112519000003 0 0 0
702 2 7.902499938800003 11.8625273016 4.579887558 0 0 0
703 2 9.4830000402 12.7750295146 7.715112519000003 0 0 0
704 2 11.0634999522 11.8625273016 4.579887558 0 0 0
705 2 12.644000053600003 12.7750295146 7.715112519000003 0 0 0
706 2 14.224499965600003 11.8625273016 4.579887558 0 0 0
707 2 15.805000066999998 12.7750295146 7.715112519000003 0 0 0
708 2 17.385499979000006 11.8625273016 4.579887558 0 0 0
709 2 18.9660000804 12.7750295146 7.715112519000003 0 0 0
710 2 20.5464999924 11.8625273016 4.579887558 0 0 0
711 2 22.127000093799992 12.7750295146 7.715112519000003 0 0 0
712 2 23.707500005800004 11.8625273016 4.579887558 0 0 0
713 1 -4.741500114799999 11.8625273016 9.221250057 0 0 0
714 2 -6.3220000268 12.7750295146 10.727387596 0 0 0
715 1 -1.5805001013999993 11.8625273016 9.221250057 0 0 0
716 2 -3.161000013399998 12.7750295146 10.727387596 0 0 0
717 1 1.5804999120000014 11.8625273016 9.221250057 0 0 0
718 2 1.7763568394002505e-15 12.7750295146 10.727387596 0 0 0
719 1 4.741499925400004 11.8625273016 9.221250057 0 0 0
720 2 3.1610000134000016 12.7750295146 10.727387596 0 0 0
721 1 7.902499938800003 11.8625273016 9.221250057 0 0 0
722 2 6.3220000268000005 12.7750295146 10.727387596 0 0 0
723 1 11.0634999522 11.8625273016 9.221250057 0 0 0
724 2 9.4830000402 12.7750295146 10.727387596 0 0 0
725 1 14.224499965600003 11.8625273016 9.221250057 0 0 0
726 2 12.644000053600003 12.7750295146 10.727387596 0 0 0
727 1 17.385499979000006 11.8625273016 9.221250057 0 0 0
728 2 15.805000066999998 12.7750295146 10.727387596 0 0 0
729 1 20.5464999924 11.8625273016 9.221250057 0 0 0
730 2 18.9660000804 12.7750295146 10.727387596 0 0 0
731 1 23.707500005800004 11.8625273016 9.221250057 0 0 0
732 2 22.127000093799992 12.7750295146 10.727387596 0 0 0
841 1 -7.902500033499999 15.512535827499999 3.073750019 0 0 0
842 2 -6.3220001215 14.6000336145 1.56761248 0 0 0
843 1 -4.741500020099997 15.512535827499999 3.073750019 0 0 0
844 2 -3.1610001081000005 14.6000336145 1.56761248 0 0 0
845 1 -1.5805000066999977 15.512535827499999 3.073750019 0 0 0
846 2 -9.469999895372894e-08 14.6000336145 1.56761248 0 0 0
847 1 1.5805000067000012 15.512535827499999 3.073750019 0 0 0
848 2 3.1609999187000017 14.6000336145 1.56761248 0 0 0
849 1 4.7415000201 15.512535827499999 3.073750019 0 0 0
850 2 6.321999932100001 14.6000336145 1.56761248 0 0 0
851 1 7.902500033499999 15.512535827499999 3.073750019 0 0 0
852 2 9.4829999455 14.6000336145 1.56761248 0 0 0
853 1 11.063500046900002 15.512535827499999 3.073750019 0 0 0
854 2 12.643999958900002 14.6000336145 1.56761248 0 0 0
855 1 14.224500060299997 15.512535827499999 3.073750019 0 0 0
856 2 15.804999972299997 14.6000336145 1.56761248 0 0 0
857 1 17.3855000737 15.512535827499999 3.073750019 0 0 0
858 2 18.9659999857 14.6000336145 1.56761248 0 0 0
859 1 20.546500087099993 15.512535827499999 3.073750019 0 0 0
860 2 22.1269999991 14.6000336145 1.56761248 0 0 0
861 2 -7.902500033499999 15.512535827499999 7.715112519000003 0 0 0
862 2 -6.3220001215 14.6000336145 4.579887558 0 0 0
863 2 -4.741500020099997 15.512535827499999 7.715112519000003 0 0 0
864 2 -3.1610001081000005 14.6000336145 4.579887558 0 0 0
865 2 -1.5805000066999977 15.512535827499999 7.715112519000003 0 0 0
866 2 -9.469999895372894e-08 14.6000336145 4.579887558 0 0 0
867 2 1.5805000067000012 15.512535827499999 7.715112519000003 0 0 0
868 2 3.1609999187000017 14.6000336145 4.579887558 0 0 0
869 2 4.7415000201 15.512535827499999 7.715112519000003 0 0 0
870 2 6.321999932100001 14.6000336145 4.579887558 0 0 0
871 2 7.902500033499999 15.512535827499999 7.715112519000003 0 0 0
872 2 9.4829999455 14.6000336145 4.579887558 0 0 0
873 2 11.063500046900002 15.512535827499999 7.715112519000003 0 0 0
874 2 12.643999958900002 14.6000336145 4.579887558 0 0 0
875 2 14.224500060299997 15.512535827499999 7.715112519000003 0 0 0
876 2 15.804999972299997 14.6000336145 4.579887558 0 0 0
877 2 17.3855000737 15.512535827499999 7.715112519000003 0 0 0
878 2 18.9659999857 14.6000336145 4.579887558 0 0 0
879 2 20.546500087099993 15.512535827499999 7.715112519000003 0 0 0
880 2 22.1269999991 14.6000336145 4.579887558 0 0 0
881 1 -6.3220001215 14.6000336145 9.221250057 0 0 0
882 2 -7.902500033499999 15.512535827499999 10.727387596 0 0 0
883 1 -3.1610001081000005 14.6000336145 9.221250057 0 0 0
884 2 -4.741500020099997 15.512535827499999 10.727387596 0 0 0
885 1 -9.469999895372894e-08 14.6000336145 9.221250057 0 0 0
886 2 -1.5805000066999977 15.512535827499999 10.727387596 0 0 0
887 1 3.1609999187000017 14.6000336145 9.221250057 0 0 0
888 2 1.5805000067000012 15.512535827499999 10.727387596 0 0 0
889 1 6.321999932100001 14.6000336145 9.221250057 0 0 0
890 2 4.7415000201 15.512535827499999 10.727387596 0 0 0
891 1 9.4829999455 14.6000336145 9.221250057 0 0 0
892 2 7.902500033499999 15.512535827499999 10.727387596 0 0 0
893 1 12.643999958900002 14.6000336145 9.221250057 0 0 0
894 2 11.063500046900002 15.512535827499999 10.727387596 0 0 0
895 1 15.804999972299997 14.6000336145 9.221250057 0 0 0
896 2 14.224500060299997 15.512535827499999 10.727387596 0 0 0
897 1 18.9659999857 14.6000336145 9.221250057 0 0 0
898 2 17.3855000737 15.512535827499999 10.727387596 0 0 0
899 1 22.1269999991 14.6000336145 9.221250057 0 0 0
900 2 20.546500087099993 15.512535827499999 10.727387596 0 0 0
1009 1 -9.483000040199997 18.2500421404 3.073750019 0 0 0
1010 2 -7.9025001282 17.3375399274 1.56761248 0 0 0
1011 1 -6.322000026799995 18.2500421404 3.073750019 0 0 0
1012 2 -4.741500114799998 17.3375399274 1.56761248 0 0 0
1013 1 -3.1610000133999963 18.2500421404 3.073750019 0 0 0
1014 2 -1.5805001013999966 17.3375399274 1.56761248 0 0 0
1015 1 3.552713678800501e-15 18.2500421404 3.073750019 0 0 0
1016 2 1.580499912000004 17.3375399274 1.56761248 0 0 0
1017 1 3.1610000134000025 18.2500421404 3.073750019 0 0 0
1018 2 4.741499925400003 17.3375399274 1.56761248 0 0 0
1019 1 6.3220000268 18.2500421404 3.073750019 0 0 0
1020 2 7.9024999388 17.3375399274 1.56761248 0 0 0
1021 1 9.483000040200002 18.2500421404 3.073750019 0 0 0
1022 2 11.063499952200003 17.3375399274 1.56761248 0 0 0
1023 1 12.644000053599997 18.2500421404 3.073750019 0 0 0
1024 2 14.224499965599998 17.3375399274 1.56761248 0 0 0
1025 1 15.805000067000003 18.2500421404 3.073750019 0 0 0
1026 2 17.385499979000002 17.3375399274 1.56761248 0 0 0
1027 1 18.966000080399994 18.2500421404 3.073750019 0 0 0
1028 2 20.5464999924 17.3375399274 1.56761248 0 0 0
1029 2 -9.483000040199997 18.2500421404 7.715112519000003 0 0 0
1030 2 -7.9025001282 17.3375399274 4.579887558 0 0 0
1031 2 -6.322000026799995 18.2500421404 7.715112519000003 0 0 0
1032 2 -4.741500114799998 17.3375399274 4.579887558 0 0 0
1033 2 -3.1610000133999963 18.2500421404 7.715112519000003 0 0 0
1034 2 -1.5805001013999966 17.3375399274 4.579887558 0 0 0
1035 2 3.552713678800501e-15 18.2500421404 7.715112519000003 0 0 0
1036 2 1.580499912000004 17.3375399274 4.579887558 0 0 0
1037 2 3.1610000134000025 18.2500421404 7.715112519000003 0 0 0
1038 2 4.741499925400003 17.3375399274 4.579887558 0 0 0
1039 2 6.3220000268 18.2500421404 7.715112519000003 0 0 0
1040 2 7.9024999388 17.3375399274 4.579887558 0 0 0
1041 2 9.483000040200002 18.2500421404 7.715112519000003 0 0 0
1042 2 11.063499952200003 17.3375399274 4.579887558 0 0 0
1043 2 12.644000053599997 18.2500421404 7.715112519000003 0 0 0
1044 2 14.224499965599998 17.3375399274 4.579887558 0 0 0
1045 2 15.805000067000003 18.2500421404 7.715112519000003 0 0 0
1046 2 17.385499979000002 17.3375399274 4.579887558 0 0 0
1047 2 18.966000080399994 18.2500421404 7.715112519000003 0 0 0
1048 2 20.5464999924 17.3375399274 4.579887558 0 0 0
1049 1 -7.9025001282 17.3375399274 9.221250057 0 0 0
1050 2 -9.483000040199997 18.2500421404 10.727387596 0 0 0
1051 1 -4.741500114799998 17.3375399274 9.221250057 0 0 0
1052 2 -6.322000026799995 18.2500421404 10.727387596 0 0 0
1053 1 -1.5805001013999966 17.3375399274 9.221250057 0 0 0
1054 2 -3.1610000133999963 18.2500421404 10.727387596 0 0 0
1055 1 1.580499912000004 17.3375399274 9.221250057 0 0 0
1056 2 3.552713678800501e-15 18.2500421404 10.727387596 0 0 0
1057 1 4.741499925400003 17.3375399274 9.221250057 0 0 0
1058 2 3.1610000134000025 18.2500421404 10.727387596 0 0 0
1059 1 7.9024999388 17.3375399274 9.221250057 0 0 0
1060 2 6.3220000268 18.2500421404 10.727387596 0 0 0
1061 1 11.063499952200003 17.3375399274 9.221250057 0 0 0
1062 2 9.483000040200002 18.2500421404 10.727387596 0 0 0
1063 1 14.224499965599998 17.3375399274 9.221250057 0 0 0
1064 2 12.644000053599997 18.2500421404 10.727387596 0 0 0
1065 1 17.385499979000002 17.3375399274 9.221250057 0 0 0
1066 2 15.805000067000003 18.2500421404 10.727387596 0 0 0
1067 1 20.5464999924 17.3375399274 9.221250057 0 0 0
1068 2 18.966000080399994 18.2500421404 10.727387596 0 0 0
1178 2 -9.4830001349 20.0750462403 1.56761248 0 0 0
1180 2 -6.322000121499998 20.0750462403 1.56761248 0 0 0
1182 2 -3.161000108099996 20.0750462403 1.56761248 0 0 0
1184 2 -9.469999540101526e-08 20.0750462403 1.56761248 0 0 0
1186 2 3.1609999187000035 20.0750462403 1.56761248 0 0 0
1188 2 6.321999932100001 20.0750462403 1.56761248 0 0 0
1190 2 9.482999945500003 20.0750462403 1.56761248 0 0 0
1192 2 12.643999958899999 20.0750462403 1.56761248 0 0 0
1194 2 15.804999972300001 20.0750462403 1.56761248 0 0 0
1196 2 18.965999985699995 20.0750462403 1.56761248 0 0 0
1198 2 -9.4830001349 20.0750462403 4.579887558 0 0 0
1200 2 -6.322000121499998 20.0750462403 4.579887558 0 0 0
1202 2 -3.161000108099996 20.0750462403 4.579887558 0 0 0
1204 2 -9.469999540101526e-08 20.0750462403 4.579887558 0 0 0
1206 2 3.1609999187000035 20.0750462403 4.579887558 0 0 0
1208 2 6.321999932100001 20.0750462403 4.579887558 0 0 0
1210 2 9.482999945500003 20.0750462403 4.579887558 0 0 0
1212 2 12.643999958899999 20.0750462403 4.579887558 0 0 0
1214 2 15.804999972300001 20.0750462403 4.579887558 0 0 0
1216 2 18.965999985699995 20.0750462403 4.579887558 0 0 0
1217 1 -9.4830001349 20.0750462403 9.221250057 0 0 0
1219 1 -6.322000121499998 20.0750462403 9.221250057 0 0 0
1221 1 -3.161000108099996 20.0750462403 9.221250057 0 0 0
1223 1 -9.469999540101526e-08 20.0750462403 9.221250057 0 0 0
1225 1 3.1609999187000035 20.0750462403 9.221250057 0 0 0
1227 1 6.321999932100001 20.0750462403 9.221250057 0 0 0
1229 1 9.482999945500003 20.0750462403 9.221250057 0 0 0
1231 1 12.643999958899999 20.0750462403 9.221250057 0 0 0
1233 1 15.804999972300001 20.0750462403 9.221250057 0 0 0
1235 1 18.965999985699995 20.0750462403 9.221250057 0 0 0
1177 1 -11.0635000469 20.9875484533 3.073750019 0 0 0
1179 1 -7.902500033499997 20.9875484533 3.073750019 0 0 0
1181 1 -4.741500020099998 20.9875484533 3.073750019 0 0 0
1183 1 -1.5805000066999995 20.9875484533 3.073750019 0 0 0
1185 1 1.5805000066999995 20.9875484533 3.073750019 0 0 0
1187 1 4.741500020099998 20.9875484533 3.073750019 0 0 0
1189 1 7.902500033500001 20.9875484533 3.073750019 0 0 0
1191 1 11.063500046899996 20.9875484533 3.073750019 0 0 0
1193 1 14.224500060299999 20.9875484533 3.073750019 0 0 0
1195 1 17.385500073699994 20.9875484533 3.073750019 0 0 0
1197 2 -11.0635000469 20.9875484533 7.715112519000003 0 0 0
1199 2 -7.902500033499997 20.9875484533 7.715112519000003 0 0 0
1201 2 -4.741500020099998 20.9875484533 7.715112519000003 0 0 0
1203 2 -1.5805000066999995 20.9875484533 7.715112519000003 0 0 0
1205 2 1.5805000066999995 20.9875484533 7.715112519000003 0 0 0
1207 2 4.741500020099998 20.9875484533 7.715112519000003 0 0 0
1209 2 7.902500033500001 20.9875484533 7.715112519000003 0 0 0
1211 2 11.063500046899996 20.9875484533 7.715112519000003 0 0 0
1213 2 14.224500060299999 20.9875484533 7.715112519000003 0 0 0
1215 2 17.385500073699994 20.9875484533 7.715112519000003 0 0 0
1218 2 -11.0635000469 20.9875484533 10.727387596 0 0 0
1220 2 -7.902500033499997 20.9875484533 10.727387596 0 0 0
1222 2 -4.741500020099998 20.9875484533 10.727387596 0 0 0
1224 2 -1.5805000066999995 20.9875484533 10.727387596 0 0 0
1226 2 1.5805000066999995 20.9875484533 10.727387596 0 0 0
1228 2 4.741500020099998 20.9875484533 10.727387596 0 0 0
1230 2 7.902500033500001 20.9875484533 10.727387596 0 0 0
1232 2 11.063500046899996 20.9875484533 10.727387596 0 0 0
1234 2 14.224500060299999 20.9875484533 10.727387596 0 0 0
1236 2 17.385500073699994 20.9875484533 10.727387596 0 0 0
1345 1 -12.6440000536 23.7250547662 3.073750019 0 0 0
1346 2 -11.063500141600002 22.8125525532 1.56761248 0 0 0
1347 1 -9.483000040199997 23.7250547662 3.073750019 0 0 0
1348 2 -7.902500128200002 22.8125525532 1.56761248 0 0 0
1349 1 -6.322000026799998 23.7250547662 3.073750019 0 0 0
1350 2 -4.741500114799999 22.8125525532 1.56761248 0 0 0
1351 1 -3.161000013399999 23.7250547662 3.073750019 0 0 0
1352 2 -1.5805001013999984 22.8125525532 1.56761248 0 0 0
1353 1 0 23.7250547662 3.073750019 0 0 0
1354 2 1.5804999120000005 22.8125525532 1.56761248 0 0 0
1355 1 3.161000013399999 23.7250547662 3.073750019 0 0 0
1356 2 4.741499925399999 22.8125525532 1.56761248 0 0 0
1357 1 6.322000026800001 23.7250547662 3.073750019 0 0 0
1358 2 7.902499938800002 22.8125525532 1.56761248 0 0 0
1359 1 9.483000040199997 23.7250547662 3.073750019 0 0 0
1360 2 11.063499952199997 22.8125525532 1.56761248 0 0 0
1361 1 12.6440000536 23.7250547662 3.073750019 0 0 0
1362 2 14.2244999656 22.8125525532 1.56761248 0 0 0
1363 1 15.805000066999995 23.7250547662 3.073750019 0 0 0
1364 2 17.385499979 22.8125525532 1.56761248 0 0 0
1365 2 -12.6440000536 23.7250547662 7.715112519000003 0 0 0
1366 2 -11.063500141600002 22.8125525532 4.579887558 0 0 0
1367 2 -9.483000040199997 23.7250547662 7.715112519000003 0 0 0
1368 2 -7.902500128200002 22.8125525532 4.579887558 0 0 0
1369 2 -6.322000026799998 23.7250547662 7.715112519000003 0 0 0
1370 2 -4.741500114799999 22.8125525532 4.579887558 0 0 0
1371 2 -3.161000013399999 23.7250547662 7.715112519000003 0 0 0
1372 2 -1.5805001013999984 22.8125525532 4.579887558 0 0 0
1373 2 0 23.7250547662 7.715112519000003 0 0 0
1374 2 1.5804999120000005 22.8125525532 4.579887558 0 0 0
1375 2 3.161000013399999 23.7250547662 7.715112519000003 0 0 0
1376 2 4.741499925399999 22.8125525532 4.579887558 0 0 0
1377 2 6.322000026800001 23.7250547662 7.715112519000003 0 0 0
1378 2 7.902499938800002 22.8125525532 4.579887558 0 0 0
1379 2 9.483000040199997 23.7250547662 7.715112519000003 0 0 0
1380 2 11.063499952199997 22.8125525532 4.579887558 0 0 0
1381 2 12.6440000536 23.7250547662 7.715112519000003 0 0 0
1382 2 14.2244999656 22.8125525532 4.579887558 0 0 0