ITEM: TIMESTEP
0
ITEM: NUMBER OF ATOMS
2520
ITEM: BOX BOUNDS xy xz yz pp pp pp
-2.3530014521158247e+01 1.2544935743708682e+02 -2.3530014521158247e+01
0.0000000000000000e+00 4.0740873909854265e+01 0.0000000000000000e+00
0.0000000000000000e+00 3.2295000076299999e+01 0.0000000000000000e+00
ITEM: ATOMS element xu yu zu
Mo -0.000247062 1.81078 3.07417
S 1.56795 0.905358 1.55007
Mo 3.13587 1.81071 3.07434
S 4.70417 0.905353 1.55009
Mo 6.27209 1.81071 3.07435
S 7.84041 0.905353 1.55009
Mo 9.40832 1.81071 3.07435
S 10.9766 0.905353 1.55009
Mo 12.5446 1.81071 3.07435
S 14.1129 0.905353 1.55009
Mo 15.6808 1.81071 3.07435
S 17.2491 0.905353 1.55009
Mo 18.817 1.81071 3.07435
S 20.3853 0.905353 1.55009
Mo 21.9533 1.81071 3.07435
S 23.5216 0.905353 1.55009
Mo 25.0895 1.81071 3.07435
S 26.6578 0.905353 1.55009
Mo 28.2257 1.81071 3.07435
S 29.794 0.905353 1.55009
S -0.00186676 1.80984 7.69765
S 1.56801 0.905397 4.60333
S 3.13599 1.81078 7.69136
S 4.70418 0.905355 4.60352
S 6.2721 1.81071 7.69148
S 7.84041 0.905353 4.60352
S 9.40833 1.81071 7.69148
S 10.9766 0.905353 4.60352
S 12.5446 1.81071 7.69148
S 14.1129 0.905353 4.60352
S 15.6808 1.81071 7.69148
S 17.2491 0.905353 4.60352
S 18.817 1.81071 7.69148
S 20.3853 0.905353 4.60352
S 21.9533 1.81071 7.69148
S 23.5216 0.905353 4.60352
S 25.0895 1.81071 7.69148
S 26.6578 0.905353 4.60352
S 28.2257 1.81071 7.69148
S 29.794 0.905353 4.60352
Mo 1.57054 0.906854 9.22068
S -0.00203554 1.80975 10.7388
Mo 4.70426 0.9054 9.22065
S 3.13598 1.81078 10.745
Mo 7.84041 0.905354 9.22065
S 6.2721 1.81071 10.7449
Mo 10.9766 0.905353 9.22065
S 9.40833 1.81071 10.7449
Mo 14.1129 0.905353 9.22065
S 12.5446 1.81071 10.7449
Mo 17.2491 0.905353 9.22065
S 15.6808 1.81071 10.7449
Mo 20.3853 0.905353 9.22065
S 18.817 1.81071 10.7449
Mo 23.5216 0.905353 9.22065
S 21.9533 1.81071 10.7449
Mo 26.6578 0.905353 9.22065
S 25.0895 1.81071 10.7449
Mo 29.794 0.905353 9.22065
S 28.2257 1.81071 10.7449
Mo 31.362 1.81071 3.07435
S 32.9303 0.905353 1.55009
Mo 34.4982 1.81071 3.07435
S 36.0665 0.905353 1.55009
Mo 37.6344 1.81071 3.07435
S 39.2027 0.905353 1.55009
Mo 40.7707 1.81071 3.07435
S 42.339 0.905353 1.55009
Mo 43.9069 1.8107 3.07435
S 45.4752 0.905348 1.55008
Mo 47.0431 1.81066 3.07418
S 48.6114 0.905345 1.55003
Mo 50.1792 1.81063 3.07392
S 51.7477 0.905348 1.54996
Mo 53.3156 1.8107 3.07375
S 54.8839 0.905352 1.54995
Mo 56.4518 1.81071 3.07375
S 58.0201 0.905353 1.54994
Mo 59.5881 1.81071 3.07375
S 61.1564 0.905353 1.54994
S 31.362 1.81071 7.69148
S 32.9303 0.905353 4.60352
S 34.4982 1.81071 7.69148
S 36.0665 0.905353 4.60352
S 37.6344 1.81071 7.69148
S 39.2027 0.905353 4.60352
S 40.7707 1.8107 7.69148
S 42.339 0.905352 4.60352
S 43.9068 1.81067 7.69148
S 45.4752 0.905341 4.60352
S 47.0402 1.80899 7.69229
S 48.6104 0.90476 4.60144
S 47.0402 1.80898 10.7442
S 51.7476 0.90533 4.59759
Mo 48.6178 0.909041 9.22086
S 54.8839 0.90535 4.59756
S 43.9068 1.81067 10.7449
S 58.0201 0.905353 4.59756
Mo 45.4751 0.905301 9.22065
S 61.1564 0.905353 4.59756
Mo 32.9303 0.905353 9.22065
S 31.362 1.81071 10.7449
Mo 36.0665 0.905353 9.22065
S 34.4982 1.81071 10.7449
Mo 39.2028 0.905353 9.22065
S 37.6344 1.81071 10.7449
Mo 42.339 0.905349 9.22065
S 40.7707 1.8107 10.7449
Mo 62.7243 1.81071 3.07375
S 64.2926 0.905353 1.54994
Mo 65.8605 1.81071 3.07375
S 67.4289 0.905353 1.54994
Mo 68.9968 1.81071 3.07375
S 70.5651 0.905353 1.54994
Mo 72.133 1.81071 3.07375
S 73.7013 0.905353 1.54994
Mo 75.2692 1.81071 3.07375
S 76.8376 0.905353 1.54994
Mo 78.4055 1.81071 3.07375
S 79.9738 0.905353 1.54994
Mo 81.5417 1.81071 3.07375
S 83.11 0.905353 1.54994
Mo 84.6779 1.81071 3.07375
S 86.2463 0.905353 1.54994
Mo 87.8142 1.81071 3.07375
S 89.3825 0.905353 1.54994
Mo 90.9504 1.81071 3.07375
S 92.5187 0.905353 1.54994
S 92.5187 0.905353 4.59756
S 64.2926 0.905353 4.59756
S 89.3825 0.905353 4.59756
S 67.4289 0.905353 4.59756
S 86.2463 0.905353 4.59756
S 70.5651 0.905353 4.59756
S 83.11 0.905353 4.59756
S 73.7013 0.905353 4.59756
S 79.9738 0.905353 4.59756
S 76.8376 0.905353 4.59756
Mo 94.0866 1.81071 3.07375
S 95.655 0.905353 1.54994
Mo 97.2229 1.81071 3.07375
S 98.7912 0.905353 1.54994
Mo 100.359 1.81071 3.07375
S 101.927 0.905353 1.54994
Mo 103.495 1.81071 3.07375
S 105.064 0.905353 1.54994
Mo 106.632 1.81071 3.07375
S 108.2 0.905353 1.54994
Mo 109.768 1.81071 3.07375
S 111.336 0.905353 1.54994
Mo 112.904 1.81071 3.07375
S 114.472 0.905353 1.54994
Mo 116.04 1.81071 3.07375
S 117.609 0.905353 1.54995
Mo 119.177 1.81071 3.07375
S 120.745 0.905357 1.54995
Mo 122.313 1.81075 3.07391
S 123.881 0.90536 1.55
S 123.882 0.905928 4.59948
S 95.655 0.905353 4.59756
S 120.745 0.905368 4.59757
S 98.7912 0.905353 4.59756
S 117.609 0.905354 4.59756
S 101.927 0.905353 4.59756
S 114.472 0.905353 4.59756
S 105.064 0.905353 4.59756
S 111.336 0.905353 4.59756
S 108.2 0.905353 4.59756
Mo -1.56891 4.52684 3.07417
S -0.00072054 3.62142 1.55007
Mo 1.5672 4.52677 3.07434
S 3.13551 3.62141 1.55009
Mo 4.70342 4.52676 3.07435
S 6.27174 3.62141 1.55009
Mo 7.83966 4.52676 3.07435
S 9.40797 3.62141 1.55009
Mo 10.9759 4.52676 3.07435
S 12.5442 3.62141 1.55009
Mo 14.1121 4.52676 3.07435
S 15.6804 3.62141 1.55009
Mo 17.2484 4.52676 3.07435
S 18.8167 3.62141 1.55009
Mo 20.3846 4.52676 3.07435
S 21.9529 3.62141 1.55009
Mo 23.5208 4.52676 3.07435
S 25.0891 3.62141 1.55009
Mo 26.6571 4.52676 3.07435
S 28.2254 3.62141 1.55009
S -1.57053 4.5259 7.69765
S -0.000652708 3.62146 4.60333
S 1.56732 4.52683 7.69136
S 3.13551 3.62141 4.60352
S 4.70344 4.52677 7.69148
S 6.27174 3.62141 4.60352
S 7.83966 4.52676 7.69148
S 9.40797 3.62141 4.60352
S 10.9759 4.52676 7.69148
S 12.5442 3.62141 4.60352
S 14.1121 4.52676 7.69148
S 15.6804 3.62141 4.60352
S 17.2484 4.52676 7.69148
S 18.8167 3.62141 4.60352
S 20.3846 4.52676 7.69148
S 21.9529 3.62141 4.60352
S 23.5208 4.52676 7.69148
S 25.0891 3.62141 4.60352
S 26.6571 4.52676 7.69148
S 28.2254 3.62141 4.60352
Mo 0.00187279 3.62291 9.22068
S -1.5707 4.5258 10.7388
Mo 3.13559 3.62146 9.22065
S 1.56732 4.52683 10.745
Mo 6.27175 3.62141 9.22065
S 4.70343 4.52677 10.7449
Mo 9.40798 3.62141 9.22065
S 7.83966 4.52676 10.7449
Mo 12.5442 3.62141 9.22065
S 10.9759 4.52676 10.7449
Mo 15.6804 3.62141 9.22065
S 14.1121 4.52676 10.7449
Mo 18.8167 3.62141 9.22065
S 17.2484 4.52676 10.7449
Mo 21.9529 3.62141 9.22065
S 20.3846 4.52676 10.7449
Mo 25.0891 3.62141 9.22065
S 23.5208 4.52676 10.7449
Mo 28.2254 3.62141 9.22065
S 26.6571 4.52676 10.7449
Mo 29.7933 4.52676 3.07435
S 31.3616 3.62141 1.55009
Mo 32.9295 4.52676 3.07435
S 34.4978 3.62141 1.55009
Mo 36.0658 4.52676 3.07435
S 37.6341 3.62141 1.55009
Mo 39.202 4.52676 3.07435
S 40.7703 3.62141 1.55009
Mo 42.3382 4.52676 3.07435
S 43.9065 3.62141 1.55008
Mo 45.4744 4.52672 3.07418
S 47.0428 3.6214 1.55003
Mo 48.6106 4.52669 3.07392
S 50.179 3.62141 1.54996
Mo 51.7469 4.52676 3.07375
S 53.3152 3.62141 1.54995
Mo 54.8832 4.52676 3.07375
S 56.4515 3.62141 1.54994
Mo 58.0194 4.52676 3.07375
S 59.5877 3.62141 1.54994
S 29.7933 4.52676 7.69148
S 31.3616 3.62141 4.60352
S 32.9295 4.52676 7.69148
S 34.4978 3.62141 4.60352
S 36.0658 4.52676 7.69148
S 37.6341 3.62141 4.60352
S 39.202 4.52676 7.69148
S 40.7703 3.62141 4.60352
S 42.3382 4.52673 7.69148
S 43.9065 3.6214 4.60352
S 45.4715 4.52505 7.69229
S 47.0418 3.62082 4.60144
S 45.4715 4.52504 10.7442
S 50.179 3.62139 4.59759
Mo 47.0492 3.6251 9.22086
S 53.3152 3.62141 4.59756
S 42.3382 4.52673 10.7449
S 56.4515 3.62141 4.59756
Mo 43.9065 3.62136 9.22065
S 59.5877 3.62141 4.59756
Mo 31.3616 3.62141 9.22065
S 29.7933 4.52676 10.7449
Mo 34.4978 3.62141 9.22065
S 32.9295 4.52676 10.7449
Mo 37.6341 3.62141 9.22065
S 36.0658 4.52676 10.7449
Mo 40.7703 3.62141 9.22065
S 39.202 4.52676 10.7449
Mo 61.1556 4.52676 3.07375
S 62.7239 3.62141 1.54994
Mo 64.2919 4.52676 3.07375
S 65.8602 3.62141 1.54994
Mo 67.4281 4.52676 3.07375
S 68.9964 3.62141 1.54994
Mo 70.5643 4.52676 3.07375
S 72.1327 3.62141 1.54994
Mo 73.7006 4.52676 3.07375
S 75.2689 3.62141 1.54994
Mo 76.8368 4.52676 3.07375
S 78.4051 3.62141 1.54994
Mo 79.973 4.52676 3.07375
S 81.5414 3.62141 1.54994
Mo 83.1093 4.52676 3.07375
S 84.6776 3.62141 1.54994
Mo 86.2455 4.52676 3.07375
S 87.8138 3.62141 1.54994
Mo 89.3817 4.52676 3.07375
S 90.9501 3.62141 1.54994
S 90.9501 3.62141 4.59756
S 62.7239 3.62141 4.59756
S 87.8138 3.62141 4.59756
S 65.8602 3.62141 4.59756
S 84.6776 3.62141 4.59756
S 68.9964 3.62141 4.59756
S 81.5414 3.62141 4.59756
S 72.1327 3.62141 4.59756
S 78.4051 3.62141 4.59756
S 75.2689 3.62141 4.59756
Mo 92.518 4.52676 3.07375
S 94.0863 3.62141 1.54994
Mo 95.6542 4.52676 3.07375
S 97.2225 3.62141 1.54994
Mo 98.7904 4.52676 3.07375
S 100.359 3.62141 1.54994
Mo 101.927 4.52676 3.07375
S 103.495 3.62141 1.54994
Mo 105.063 4.52676 3.07375
S 106.631 3.62141 1.54994
Mo 108.199 4.52676 3.07375
S 109.767 3.62141 1.54994
Mo 111.335 4.52676 3.07375
S 112.904 3.62141 1.54994
Mo 114.472 4.52676 3.07375
S 116.04 3.62141 1.54995
Mo 117.608 4.52677 3.07375
S 119.176 3.62142 1.54995
Mo 120.744 4.52681 3.07391
S 122.312 3.62142 1.55
S 122.313 3.62199 4.59948
S 94.0863 3.62141 4.59756
S 119.176 3.62143 4.59757
S 97.2225 3.62141 4.59756
S 116.04 3.62141 4.59756
S 100.359 3.62141 4.59756
S 112.904 3.62141 4.59756
S 103.495 3.62141 4.59756
S 109.767 3.62141 4.59756
S 106.631 3.62141 4.59756
Mo -3.13758 7.2429 3.07417
S -1.56939 6.33747 1.55007
Mo -0.00146969 7.24283 3.07434
S 1.56684 6.33747 1.55009
Mo 3.13476 7.24282 3.07435
S 4.70307 6.33747 1.55009
Mo 6.27099 7.24282 3.07435
S 7.83931 6.33747 1.55009
Mo 9.40722 7.24282 3.07435
S 10.9755 6.33747 1.55009
Mo 12.5435 7.24282 3.07435
S 14.1118 6.33747 1.55009
Mo 15.6797 7.24282 3.07435
S 17.248 6.33747 1.55009
Mo 18.8159 7.24282 3.07435
S 20.3842 6.33747 1.55009
Mo 21.9522 7.24282 3.07435
S 23.5205 6.33747 1.55009
Mo 25.0884 7.24282 3.07435
S 26.6567 6.33747 1.55009
S -3.1392 7.24196 7.69765
S -1.56932 6.33751 4.60333
S -0.00135018 7.24289 7.69136
S 1.56684 6.33747 4.60352
S 3.13477 7.24283 7.69148
S 4.70307 6.33747 4.60352
S 6.27099 7.24282 7.69148
S 7.8393 6.33747 4.60352
S 9.40723 7.24282 7.69148
S 10.9755 6.33747 4.60352
S 12.5435 7.24282 7.69148
S 14.1118 6.33747 4.60352
S 15.6797 7.24282 7.69148
S 17.248 6.33747 4.60352
S 18.8159 7.24282 7.69148
S 20.3842 6.33747 4.60352
S 21.9522 7.24282 7.69148
S 23.5205 6.33747 4.60352
S 25.0884 7.24282 7.69148
S 26.6567 6.33747 4.60352
Mo -1.56679 6.33897 9.22068
S -3.13937 7.24186 10.7388
Mo 1.56692 6.33752 9.22065
S -0.00135152 7.24289 10.745
Mo 4.70308 6.33747 9.22065
S 3.13477 7.24283 10.7449
Mo 7.83931 6.33747 9.22065
S 6.27099 7.24282 10.7449
Mo 10.9755 6.33747 9.22065
S 9.40723 7.24282 10.7449
Mo 14.1118 6.33747 9.22065
S 12.5435 7.24282 10.7449
Mo 17.248 6.33747 9.22065
S 15.6797 7.24282 10.7449
Mo 20.3842 6.33747 9.22065
S 18.8159 7.24282 10.7449
Mo 23.5205 6.33747 9.22065
S 21.9522 7.24282 10.7449
Mo 26.6567 6.33747 9.22065
S 25.0884 7.24282 10.7449
Mo 28.2246 7.24282 3.07435
S 29.7929 6.33747 1.55009
Mo 31.3609 7.24282 3.07435
S 32.9292 6.33747 1.55009
Mo 34.4971 7.24282 3.07435
S 36.0654 6.33747 1.55009
Mo 37.6333 7.24282 3.07435
S 39.2016 6.33747 1.55009
Mo 40.7696 7.24282 3.07435
S 42.3379 6.33746 1.55008
Mo 43.9057 7.24278 3.07418
S 45.4741 6.33746 1.55003
Mo 47.0419 7.24275 3.07392
S 48.6103 6.33746 1.54996
Mo 50.1783 7.24282 3.07375
S 51.7466 6.33747 1.54995
Mo 53.3145 7.24282 3.07375
S 54.8828 6.33747 1.54994
Mo 56.4507 7.24282 3.07375
S 58.019 6.33747 1.54994
S 28.2246 7.24282 7.69148
S 29.7929 6.33747 4.60352
S 31.3609 7.24282 7.69148
S 32.9292 6.33747 4.60352
S 34.4971 7.24282 7.69148
S 36.0654 6.33747 4.60352
S 37.6333 7.24282 7.69148
S 39.2016 6.33747 4.60352
S 40.7695 7.24278 7.69148
S 42.3379 6.33746 4.60352
S 43.9028 7.24111 7.69229
S 45.4731 6.33688 4.60144
S 43.9028 7.2411 10.7442
S 48.6103 6.33745 4.59759
Mo 45.4805 6.34116 9.22086
S 51.7466 6.33747 4.59756
S 40.7695 7.24278 10.7449
S 54.8828 6.33747 4.59756
Mo 42.3378 6.33742 9.22065
S 58.019 6.33747 4.59756
Mo 29.7929 6.33747 9.22065
S 28.2246 7.24282 10.7449
Mo 32.9292 6.33747 9.22065
S 31.3609 7.24282 10.7449
Mo 36.0654 6.33747 9.22065
S 34.4971 7.24282 10.7449
Mo 39.2016 6.33747 9.22065
S 37.6333 7.24282 10.7449
Mo 59.587 7.24282 3.07375
S 61.1553 6.33747 1.54994
Mo 62.7232 7.24282 3.07375
S 64.2915 6.33747 1.54994
Mo 65.8594 7.24282 3.07375
S 67.4277 6.33747 1.54994
Mo 68.9957 7.24282 3.07375
S 70.564 6.33747 1.54994
Mo 72.1319 7.24282 3.07375
S 73.7002 6.33747 1.54994
Mo 75.2681 7.24282 3.07375
S 76.8365 6.33747 1.54994
Mo 78.4044 7.24282 3.07375
S 79.9727 6.33747 1.54994
Mo 81.5406 7.24282 3.07375
S 83.1089 6.33747 1.54994
Mo 84.6768 7.24282 3.07375
S 86.2452 6.33747 1.54994
Mo 87.8131 7.24282 3.07375
S 89.3814 6.33747 1.54994
S 89.3814 6.33747 4.59756
S 61.1553 6.33747 4.59756
S 86.2452 6.33747 4.59756
S 64.2915 6.33747 4.59756
S 83.1089 6.33747 4.59756
S 67.4277 6.33747 4.59756
S 79.9727 6.33747 4.59756
S 70.564 6.33747 4.59756
S 76.8365 6.33747 4.59756
S 73.7002 6.33747 4.59756
Mo 90.9493 7.24282 3.07375
S 92.5176 6.33747 1.54994
Mo 94.0855 7.24282 3.07375
S 95.6539 6.33747 1.54994
Mo 97.2218 7.24282 3.07375
S 98.7901 6.33747 1.54994
Mo 100.358 7.24282 3.07375
S 101.926 6.33747 1.54994
Mo 103.494 7.24282 3.07375
S 105.063 6.33747 1.54994
Mo 106.63 7.24282 3.07375
S 108.199 6.33747 1.54994
Mo 109.767 7.24282 3.07375
S 111.335 6.33747 1.54994
Mo 112.903 7.24282 3.07375
S 114.471 6.33747 1.54995
Mo 116.039 7.24282 3.07375
S 117.607 6.33747 1.54995
Mo 119.175 7.24286 3.07391
S 120.744 6.33748 1.55
S 120.745 6.33804 4.59948
S 92.5176 6.33747 4.59756
S 117.608 6.33748 4.59757
S 95.6539 6.33747 4.59756
S 114.471 6.33747 4.59756
S 98.7901 6.33747 4.59756
S 111.335 6.33747 4.59756
S 101.926 6.33747 4.59756
S 108.199 6.33747 4.59756
S 105.063 6.33747 4.59756
Mo -4.70625 9.95896 3.07417
S -3.13806 9.05353 1.55007
Mo -1.57014 9.95889 3.07434
S -0.00182961 9.05353 1.55009
Mo 1.56609 9.95888 3.07435
S 3.1344 9.05353 1.55009
Mo 4.70232 9.95888 3.07435
S 6.27064 9.05353 1.55009
Mo 7.83856 9.95888 3.07435
S 9.40687 9.05353 1.55009
Mo 10.9748 9.95888 3.07435
S 12.5431 9.05353 1.55009
Mo 14.111 9.95888 3.07435
S 15.6793 9.05353 1.55009
Mo 17.2473 9.95888 3.07435
S 18.8156 9.05353 1.55009
Mo 20.3835 9.95888 3.07435
S 21.9518 9.05353 1.55009
Mo 23.5197 9.95888 3.07435
S 25.088 9.05353 1.55009
S -4.70787 9.95802 7.69765
S -3.13799 9.05357 4.60333
S -1.57002 9.95895 7.69136
S -0.00182659 9.05353 4.60352
S 1.5661 9.95888 7.69148
S 3.1344 9.05353 4.60352
S 4.70233 9.95888 7.69148
S 6.27064 9.05353 4.60352
S 7.83856 9.95888 7.69148
S 9.40687 9.05353 4.60352
S 10.9748 9.95888 7.69148
S 12.5431 9.05353 4.60352
S 14.111 9.95888 7.69148
S 15.6793 9.05353 4.60352
S 17.2473 9.95888 7.69148
S 18.8156 9.05353 4.60352
S 20.3835 9.95888 7.69148
S 21.9518 9.05353 4.60352
S 23.5197 9.95888 7.69148
S 25.088 9.05353 4.60352
Mo -3.13546 9.05503 9.22068
S -4.70804 9.95792 10.7388
Mo -0.0017431 9.05358 9.22065
S -1.57002 9.95895 10.745
Mo 3.13441 9.05353 9.22065
S 1.5661 9.95888 10.7449
Mo 6.27064 9.05353 9.22065
S 4.70233 9.95888 10.7449
Mo 9.40688 9.05353 9.22065
S 7.83856 9.95888 10.7449
Mo 12.5431 9.05353 9.22065
S 10.9748 9.95888 10.7449
Mo 15.6793 9.05353 9.22065
S 14.111 9.95888 10.7449
Mo 18.8156 9.05353 9.22065
S 17.2473 9.95888 10.7449
Mo 21.9518 9.05353 9.22065
S 20.3835 9.95888 10.7449
Mo 25.088 9.05353 9.22065
S 23.5197 9.95888 10.7449
Mo 26.656 9.95888 3.07435
S 28.2243 9.05353 1.55009
Mo 29.7922 9.95888 3.07435
S 31.3605 9.05353 1.55009
Mo 32.9284 9.95888 3.07435
S 34.4967 9.05353 1.55009
Mo 36.0647 9.95888 3.07435
S 37.633 9.05353 1.55009
Mo 39.2009 9.95888 3.07435
S 40.7692 9.05352 1.55008
Mo 42.3371 9.95884 3.07418
S 43.9054 9.05352 1.55003
Mo 45.4732 9.9588 3.07392
S 47.0417 9.05352 1.54996
Mo 48.6096 9.95888 3.07375
S 50.1779 9.05353 1.54995
Mo 51.7458 9.95888 3.07375
S 53.3141 9.05353 1.54994
Mo 54.8821 9.95888 3.07375
S 56.4504 9.05353 1.54994
S 26.656 9.95888 7.69148
S 28.2243 9.05353 4.60352
S 29.7922 9.95888 7.69148
S 31.3605 9.05353 4.60352
S 32.9284 9.95888 7.69148
S 34.4967 9.05353 4.60352
S 36.0647 9.95888 7.69148
S 37.633 9.05353 4.60352
S 39.2008 9.95884 7.69148
S 40.7692 9.05352 4.60352
S 42.3342 9.95716 7.69229
S 43.9044 9.05293 4.60144
S 42.3342 9.95716 10.7442
S 47.0416 9.05351 4.59759
Mo 43.9118 9.05722 9.22086
S 50.1779 9.05352 4.59756
S 39.2008 9.95884 10.7449
S 53.3141 9.05353 4.59756
Mo 40.7691 9.05348 9.22065
S 56.4504 9.05353 4.59756
Mo 28.2243 9.05353 9.22065
S 26.656 9.95888 10.7449
Mo 31.3605 9.05353 9.22065
S 29.7922 9.95888 10.7449
Mo 34.4967 9.05353 9.22065
S 32.9284 9.95888 10.7449
Mo 37.633 9.05352 9.22065
S 36.0647 9.95888 10.7449
Mo 58.0183 9.95888 3.07375
S 59.5866 9.05353 1.54994
Mo 61.1545 9.95888 3.07375
S 62.7228 9.05353 1.54994
Mo 64.2908 9.95888 3.07375
S 65.8591 9.05353 1.54994
Mo 67.427 9.95888 3.07375
S 68.9953 9.05353 1.54994
Mo 70.5632 9.95888 3.07375
S 72.1316 9.05353 1.54994
Mo 73.6995 9.95888 3.07375
S 75.2678 9.05353 1.54994
Mo 76.8357 9.95888 3.07375
S 78.404 9.05353 1.54994
Mo 79.9719 9.95888 3.07375
S 81.5403 9.05353 1.54994
Mo 83.1082 9.95888 3.07375
S 84.6765 9.05353 1.54994
Mo 86.2444 9.95888 3.07375
S 87.8127 9.05353 1.54994
S 87.8127 9.05353 4.59756
S 59.5866 9.05353 4.59756
S 84.6765 9.05353 4.59756
S 62.7228 9.05353 4.59756
S 81.5403 9.05353 4.59756
S 65.8591 9.05353 4.59756
S 78.404 9.05353 4.59756
S 68.9953 9.05353 4.59756
S 75.2678 9.05353 4.59756
S 72.1316 9.05353 4.59756
Mo 89.3806 9.95888 3.07375
S 90.949 9.05353 1.54994
Mo 92.5169 9.95888 3.07375
S 94.0852 9.05353 1.54994
Mo 95.6531 9.95888 3.07375
S 97.2214 9.05353 1.54994
Mo 98.7893 9.95888 3.07375
S 100.358 9.05353 1.54994
Mo 101.926 9.95888 3.07375
S 103.494 9.05353 1.54994
Mo 105.062 9.95888 3.07375
S 106.63 9.05353 1.54994
Mo 108.198 9.95888 3.07375
S 109.766 9.05353 1.54994
Mo 111.334 9.95888 3.07375
S 112.903 9.05353 1.54995
Mo 114.471 9.95888 3.07375
S 116.039 9.05353 1.54995
Mo 117.607 9.95892 3.07391
S 119.175 9.05353 1.55
S 119.176 9.0541 4.59948
S 90.949 9.05353 4.59756
S 116.039 9.05354 4.59757
S 94.0852 9.05353 4.59756
S 112.903 9.05353 4.59756
S 97.2214 9.05353 4.59756
S 109.766 9.05353 4.59756
S 100.358 9.05353 4.59756
S 106.63 9.05353 4.59756
S 103.494 9.05353 4.59756
Mo -6.27492 12.675 3.07417
S -4.70672 11.7696 1.55007
Mo -3.1388 12.6749 3.07434
S -1.5705 11.7696 1.55009
Mo -0.0025797 12.6749 3.07435
S 1.56574 11.7696 1.55009
Mo 3.13365 12.6749 3.07435
S 4.70197 11.7696 1.55009
Mo 6.26989 12.6749 3.07435
S 7.8382 11.7696 1.55009
Mo 9.40612 12.6749 3.07435
S 10.9744 11.7696 1.55009
Mo 12.5424 12.6749 3.07435
S 14.1107 11.7696 1.55009
Mo 15.6786 12.6749 3.07435
S 17.2469 11.7696 1.55009
Mo 18.8148 12.6749 3.07435
S 20.3831 11.7696 1.55009
Mo 21.9511 12.6749 3.07435
S 23.5194 11.7696 1.55009
S -6.27654 12.6741 7.69765
S -4.70666 11.7696 4.60333
S -3.13869 12.675 7.69136
S -1.57049 11.7696 4.60352
S -0.0025678 12.6749 7.69148
S 1.56574 11.7696 4.60352
S 3.13366 12.6749 7.69148
S 4.70197 11.7696 4.60352
S 6.26989 12.6749 7.69148
S 7.8382 11.7696 4.60352
S 9.40613 12.6749 7.69148
S 10.9744 11.7696 4.60352
S 12.5424 12.6749 7.69148
S 14.1107 11.7696 4.60352
S 15.6786 12.6749 7.69148
S 17.2469 11.7696 4.60352
S 18.8148 12.6749 7.69148
S 20.3831 11.7696 4.60352
S 21.9511 12.6749 7.69148
S 23.5194 11.7696 4.60352
Mo -4.70413 11.7711 9.22068
S -6.27671 12.674 10.7388
Mo -1.57041 11.7696 9.22065
S -3.13869 12.675 10.745
Mo 1.56574 11.7696 9.22065
S -0.00256838 12.6749 10.7449
Mo 4.70197 11.7696 9.22065
S 3.13366 12.6749 10.7449
Mo 7.83821 11.7696 9.22065
S 6.26989 12.6749 10.7449
Mo 10.9744 11.7696 9.22065
S 9.40613 12.6749 10.7449
Mo 14.1107 11.7696 9.22065
S 12.5424 12.6749 10.7449
Mo 17.2469 11.7696 9.22065
S 15.6786 12.6749 10.7449
Mo 20.3831 11.7696 9.22065
S 18.8148 12.6749 10.7449
Mo 23.5194 11.7696 9.22065
S 21.9511 12.6749 10.7449
Mo 25.0873 12.6749 3.07435
S 26.6556 11.7696 1.55009
Mo 28.2235 12.6749 3.07435
S 29.7918 11.7696 1.55009
Mo 31.3598 12.6749 3.07435
S 32.9281 11.7696 1.55009
Mo 34.496 12.6749 3.07435
S 36.0643 11.7696 1.55009
Mo 37.6322 12.6749 3.07435
S 39.2005 11.7696 1.55008
Mo 40.7684 12.6749 3.07418
S 42.3368 11.7696 1.55003
Mo 43.9046 12.6749 3.07392
S 45.473 11.7696 1.54996
Mo 47.0409 12.6749 3.07375
S 48.6092 11.7696 1.54995
Mo 50.1772 12.6749 3.07375
S 51.7455 11.7696 1.54994
Mo 53.3134 12.6749 3.07375
S 54.8817 11.7696 1.54994
S 25.0873 12.6749 7.69148
S 26.6556 11.7696 4.60352
S 28.2235 12.6749 7.69148
S 29.7918 11.7696 4.60352
S 31.3598 12.6749 7.69148
S 32.9281 11.7696 4.60352
S 34.496 12.6749 7.69148
S 36.0643 11.7696 4.60352
S 37.6322 12.6749 7.69148
S 39.2005 11.7696 4.60352
S 40.7655 12.6732 7.69229
S 42.3357 11.769 4.60144
S 40.7655 12.6732 10.7442
S 45.473 11.7696 4.59759
Mo 42.3432 11.7733 9.22086
S 48.6092 11.7696 4.59756
S 37.6322 12.6749 10.7449
S 51.7455 11.7696 4.59756
Mo 39.2005 11.7695 9.22065
S 54.8817 11.7696 4.59756
Mo 26.6556 11.7696 9.22065
S 25.0873 12.6749 10.7449
Mo 29.7918 11.7696 9.22065
S 28.2235 12.6749 10.7449
Mo 32.9281 11.7696 9.22065
S 31.3598 12.6749 10.7449
Mo 36.0643 11.7696 9.22065
S 34.496 12.6749 10.7449
Mo 56.4496 12.6749 3.07375
S 58.0179 11.7696 1.54994
Mo 59.5859 12.6749 3.07375
S 61.1542 11.7696 1.54994
Mo 62.7221 12.6749 3.07375
S 64.2904 11.7696 1.54994
Mo 65.8583 12.6749 3.07375
S 67.4266 11.7696 1.54994
Mo 68.9946 12.6749 3.07375
S 70.5629 11.7696 1.54994
Mo 72.1308 12.6749 3.07375
S 73.6991 11.7696 1.54994
Mo 75.267 12.6749 3.07375
S 76.8354 11.7696 1.54994
Mo 78.4033 12.6749 3.07375
S 79.9716 11.7696 1.54994
Mo 81.5395 12.6749 3.07375
S 83.1078 11.7696 1.54994
Mo 84.6757 12.6749 3.07375
S 86.2441 11.7696 1.54994
S 86.2441 11.7696 4.59756
S 58.0179 11.7696 4.59756
S 83.1078 11.7696 4.59756
S 61.1542 11.7696 4.59756
S 79.9716 11.7696 4.59756
S 64.2904 11.7696 4.59756
S 76.8354 11.7696 4.59756
S 67.4266 11.7696 4.59756
S 73.6991 11.7696 4.59756
S 70.5629 11.7696 4.59756
Mo 87.812 12.6749 3.07375
S 89.3803 11.7696 1.54994
Mo 90.9482 12.6749 3.07375
S 92.5165 11.7696 1.54994
Mo 94.0844 12.6749 3.07375
S 95.6528 11.7696 1.54994
Mo 97.2207 12.6749 3.07375
S 98.789 11.7696 1.54994
Mo 100.357 12.6749 3.07375
S 101.925 11.7696 1.54994
Mo 103.493 12.6749 3.07375
S 105.061 11.7696 1.54994
Mo 106.629 12.6749 3.07375
S 108.198 11.7696 1.54994
Mo 109.766 12.6749 3.07375
S 111.334 11.7696 1.54995
Mo 112.902 12.6749 3.07375
S 114.47 11.7696 1.54995
Mo 116.038 12.675 3.07391
S 117.606 11.7696 1.55
S 117.607 11.7702 4.59948
S 89.3803 11.7696 4.59756
S 114.47 11.7696 4.59757
S 92.5165 11.7696 4.59756
S 111.334 11.7696 4.59756
S 95.6528 11.7696 4.59756
S 108.198 11.7696 4.59756
S 98.789 11.7696 4.59756
S 105.061 11.7696 4.59756
S 101.925 11.7696 4.59756
Mo -7.84359 15.3911 3.07417
S -6.27539 14.4856 1.55007
Mo -4.70747 15.391 3.07434
S -3.13916 14.4856 1.55009
Mo -1.57125 15.391 3.07435
S -0.00293182 14.4856 1.55009
Mo 1.56499 15.391 3.07435
S 3.1333 14.4856 1.55009
Mo 4.70122 15.391 3.07435
S 6.26954 14.4856 1.55009
Mo 7.83745 15.391 3.07435
S 9.40577 14.4856 1.55009
Mo 10.9737 15.391 3.07435
S 12.542 14.4856 1.55009
Mo 14.1099 15.391 3.07435
S 15.6782 14.4856 1.55009
Mo 17.2462 15.391 3.07435
S 18.8145 14.4856 1.55009
Mo 20.3824 15.391 3.07435
S 21.9507 14.4856 1.55009
S -7.8452 15.3901 7.69765
S -6.27532 14.4857 4.60333
S -4.70735 15.3911 7.69136
S -3.13916 14.4856 4.60352
S -1.57124 15.391 7.69148
S -0.00293215 14.4856 4.60352
S 1.56499 15.391 7.69148
S 3.1333 14.4856 4.60352
S 4.70123 15.391 7.69148
S 6.26954 14.4856 4.60352
S 7.83746 15.391 7.69148
S 9.40577 14.4856 4.60352
S 10.9737 15.391 7.69148
S 12.542 14.4856 4.60352
S 14.1099 15.391 7.69148
S 15.6782 14.4856 4.60352
S 17.2462 15.391 7.69148
S 18.8145 14.4856 4.60352
S 20.3824 15.391 7.69148
S 21.9507 14.4856 4.60352
Mo -6.2728 14.4871 9.22068
S -7.84537 15.39 10.7388
Mo -3.13908 14.4857 9.22065
S -4.70735 15.3911 10.745
Mo -0.00292473 14.4856 9.22065
S -1.57124 15.391 10.7449
Mo 3.13331 14.4856 9.22065
S 1.56499 15.391 10.7449
Mo 6.26954 14.4856 9.22065
S 4.70123 15.391 10.7449
Mo 9.40578 14.4856 9.22065
S 7.83746 15.391 10.7449
Mo 12.542 14.4856 9.22065
S 10.9737 15.391 10.7449
Mo 15.6782 14.4856 9.22065
S 14.1099 15.391 10.7449
Mo 18.8145 14.4856 9.22065
S 17.2462 15.391 10.7449
Mo 21.9507 14.4856 9.22065
S 20.3824 15.391 10.7449
Mo 23.5186 15.391 3.07435
S 25.0869 14.4856 1.55009
Mo 26.6549 15.391 3.07435
S 28.2232 14.4856 1.55009
Mo 29.7911 15.391 3.07435
S 31.3594 14.4856 1.55009
Mo 32.9273 15.391 3.07435
S 34.4956 14.4856 1.55009
Mo 36.0636 15.391 3.07435
S 37.6319 14.4856 1.55008
Mo 39.1997 15.391 3.07418
S 40.7681 14.4856 1.55003
Mo 42.3359 15.3909 3.07392
S 43.9043 14.4856 1.54996
Mo 45.4723 15.391 3.07375
S 47.0406 14.4856 1.54995
Mo 48.6085 15.391 3.07375
S 50.1768 14.4856 1.54994
Mo 51.7447 15.391 3.07375
S 53.313 14.4856 1.54994
S 23.5186 15.391 7.69148
S 25.0869 14.4856 4.60352
S 26.6549 15.391 7.69148
S 28.2232 14.4856 4.60352
S 29.7911 15.391 7.69148
S 31.3594 14.4856 4.60352
S 32.9273 15.391 7.69148
S 34.4956 14.4856 4.60352
S 36.0635 15.391 7.69148
S 37.6319 14.4856 4.60352
S 39.1968 15.3893 7.69229
S 40.7671 14.4851 4.60144
S 39.1968 15.3893 10.7442
S 43.9043 14.4856 4.59759
Mo 40.7745 14.4893 9.22086
S 47.0406 14.4856 4.59756
S 36.0635 15.391 10.7449
S 50.1768 14.4856 4.59756
Mo 37.6318 14.4856 9.22065
S 53.313 14.4856 4.59756
Mo 25.0869 14.4856 9.22065
S 23.5186 15.391 10.7449
Mo 28.2232 14.4856 9.22065
S 26.6549 15.391 10.7449
Mo 31.3594 14.4856 9.22065
S 29.7911 15.391 10.7449
Mo 34.4956 14.4856 9.22065
S 32.9273 15.391 10.7449
Mo 54.881 15.391 3.07375
S 56.4493 14.4856 1.54994
Mo 58.0172 15.391 3.07375
S 59.5855 14.4856 1.54994
Mo 61.1534 15.391 3.07375
S 62.7217 14.4856 1.54994
Mo 64.2897 15.391 3.07375
S 65.858 14.4856 1.54994
Mo 67.4259 15.391 3.07375
S 68.9942 14.4856 1.54994
Mo 70.5621 15.391 3.07375
S 72.1304 14.4856 1.54994
Mo 73.6984 15.391 3.07375
S 75.2667 14.4856 1.54994
Mo 76.8346 15.391 3.07375
S 78.4029 14.4856 1.54994
Mo 79.9708 15.391 3.07375
S 81.5392 14.4856 1.54994
Mo 83.1071 15.391 3.07375
S 84.6754 14.4856 1.54994
S 84.6754 14.4856 4.59756
S 56.4493 14.4856 4.59756
S 81.5392 14.4856 4.59756
S 59.5855 14.4856 4.59756
S 78.4029 14.4856 4.59756
S 62.7217 14.4856 4.59756
S 75.2667 14.4856 4.59756
S 65.858 14.4856 4.59756
S 72.1304 14.4856 4.59756
S 68.9942 14.4856 4.59756
Mo 86.2433 15.391 3.07375
S 87.8116 14.4856 1.54994
Mo 89.3795 15.391 3.07375
S 90.9479 14.4856 1.54994
Mo 92.5158 15.391 3.07375
S 94.0841 14.4856 1.54994
Mo 95.652 15.391 3.07375
S 97.2203 14.4856 1.54994
Mo 98.7882 15.391 3.07375
S 100.357 14.4856 1.54994
Mo 101.924 15.391 3.07375
S 103.493 14.4856 1.54994
Mo 105.061 15.391 3.07375
S 106.629 14.4856 1.54994
Mo 108.197 15.391 3.07375
S 109.765 14.4856 1.54995
Mo 111.333 15.391 3.07375
S 112.901 14.4856 1.54995
Mo 114.469 15.391 3.07391
S 116.038 14.4857 1.55
S 116.039 14.4862 4.59948
S 87.8116 14.4856 4.59756
S 112.902 14.4857 4.59757
S 90.9479 14.4856 4.59756
S 109.765 14.4856 4.59756
S 94.0841 14.4856 4.59756
S 106.629 14.4856 4.59756
S 97.2203 14.4856 4.59756
S 103.493 14.4856 4.59756
S 100.357 14.4856 4.59756
Mo -9.41225 18.1071 3.07417
S -7.84406 17.2017 1.55007
Mo -6.27614 18.1071 3.07434
S -4.70783 17.2017 1.55009
Mo -3.13991 18.1071 3.07435
S -1.5716 17.2017 1.55009
Mo -0.0036814 18.1071 3.07435
S 1.56463 17.2017 1.55009
Mo 3.13255 18.1071 3.07435
S 4.70087 17.2017 1.55009
Mo 6.26879 18.1071 3.07435
S 7.8371 17.2017 1.55009
Mo 9.40502 18.1071 3.07435
S 10.9733 17.2017 1.55009
Mo 12.5413 18.1071 3.07435
S 14.1096 17.2017 1.55009
Mo 15.6775 18.1071 3.07435
S 17.2458 17.2017 1.55009
Mo 18.8137 18.1071 3.07435
S 20.382 17.2017 1.55009
S -9.41387 18.1062 7.69765
S -7.84399 17.2017 4.60333
S -6.27602 18.1071 7.69136
S -4.70783 17.2017 4.60352
S -3.1399 18.1071 7.69148
S -1.5716 17.2017 4.60352
S -0.00367559 18.1071 7.69148
S 1.56463 17.2017 4.60352
S 3.13256 18.1071 7.69148
S 4.70087 17.2017 4.60352
S 6.26879 18.1071 7.69148
S 7.8371 17.2017 4.60352
S 9.40503 18.1071 7.69148
S 10.9733 17.2017 4.60352
S 12.5413 18.1071 7.69148
S 14.1096 17.2017 4.60352
S 15.6775 18.1071 7.69148
S 17.2458 17.2017 4.60352
S 18.8137 18.1071 7.69148
S 20.382 17.2017 4.60352
Mo -7.84147 17.2032 9.22068
S -9.41404 18.1061 10.7388
Mo -4.70775 17.2017 9.22065
S -6.27602 18.1071 10.745
Mo -1.57159 17.2017 9.22065
S -3.1399 18.1071 10.7449
Mo 1.56464 17.2017 9.22065
S -0.00367615 18.1071 10.7449
Mo 4.70087 17.2017 9.22065
S 3.13256 18.1071 10.7449
Mo 7.83711 17.2017 9.22065
S 6.26879 18.1071 10.7449
Mo 10.9733 17.2017 9.22065
S 9.40503 18.1071 10.7449
Mo 14.1096 17.2017 9.22065
S 12.5413 18.1071 10.7449
Mo 17.2458 17.2017 9.22065
S 15.6775 18.1071 10.7449
Mo 20.382 17.2017 9.22065
S 18.8137 18.1071 10.7449
Mo 21.95 18.1071 3.07435
S 23.5183 17.2017 1.55009
Mo 25.0862 18.1071 3.07435
S 26.6545 17.2017 1.55009
Mo 28.2224 18.1071 3.07435
S 29.7907 17.2017 1.55009
Mo 31.3587 18.1071 3.07435
S 32.927 17.2017 1.55009
Mo 34.4949 18.1071 3.07435
S 36.0632 17.2017 1.55008
Mo 37.6311 18.107 3.07418
S 39.1994 17.2017 1.55003
Mo 40.7672 18.107 3.07392
S 42.3357 17.2017 1.54996
Mo 43.9036 18.1071 3.07375
S 45.4719 17.2017 1.54995
Mo 47.0398 18.1071 3.07375
S 48.6081 17.2017 1.54994
Mo 50.1761 18.1071 3.07375
S 51.7444 17.2017 1.54994
S 21.95 18.1071 7.69148
S 23.5183 17.2017 4.60352
S 25.0862 18.1071 7.69148
S 26.6545 17.2017 4.60352
S 28.2224 18.1071 7.69148
S 29.7907 17.2017 4.60352
S 31.3587 18.1071 7.69148
S 32.927 17.2017 4.60352
S 34.4948 18.107 7.69148
S 36.0632 17.2017 4.60352
S 37.6282 18.1053 7.69229
S 39.1984 17.2011 4.60144
S 37.6281 18.1053 10.7442
S 42.3356 17.2017 4.59759
Mo 39.2058 17.2054 9.22086
S 45.4719 17.2017 4.59756
S 34.4948 18.107 10.7449
S 48.6081 17.2017 4.59756
Mo 36.0631 17.2017 9.22065
S 51.7444 17.2017 4.59756
Mo 23.5183 17.2017 9.22065
S 21.95 18.1071 10.7449
Mo 26.6545 17.2017 9.22065
S 25.0862 18.1071 10.7449
Mo 29.7907 17.2017 9.22065
S 28.2224 18.1071 10.7449
Mo 32.927 17.2017 9.22065
S 31.3587 18.1071 10.7449
Mo 53.3123 18.1071 3.07375
S 54.8806 17.2017 1.54994
Mo 56.4485 18.1071 3.07375
S 58.0168 17.2017 1.54994
Mo 59.5848 18.1071 3.07375
S 61.1531 17.2017 1.54994
Mo 62.721 18.1071 3.07375
S 64.2893 17.2017 1.54994
Mo 65.8572 18.1071 3.07375
S 67.4255 17.2017 1.54994
Mo 68.9935 18.1071 3.07375